/*--------------------------------*- C++ -*----------------------------------*\
  =========                 |
  \\      /  F ield         | OpenFOAM: The Open Source CFD Toolbox
   \\    /   O peration     | Website:  https://openfoam.org
    \\  /    A nd           | Version:  11
     \\/     M anipulation  |
\*---------------------------------------------------------------------------*/
FoamFile
{
    format      ascii;
    class       volScalarField;
    location    "0.0002";
    object      p;
}
// * * * * * * * * * * * * * * * * * * * * * * * * * * * * * * * * * * * * * //

dimensions      [1 -1 -2 0 0 0 0];

internalField   nonuniform List<scalar> 
21740
(
121846
121002
121542
120687
119283
117667
115956
114243
112603
111095
109763
108634
107718
107007
106477
106096
105823
105603
105365
105008
121871
121062
121623
120788
119400
117792
116080
114353
112687
111148
109786
108634
107704
106988
106458
106080
105811
105595
105360
105006
121921
121185
121788
120993
119639
118052
116340
114585
112861
111251
109823
108624
107668
106942
106415
106045
105784
105577
105350
105003
121999
121372
122039
121311
120015
118468
116761
114960
113135
111393
109851
108576
107587
106856
106341
105988
105744
105551
105335
104998
122102
121623
122380
121748
120547
119072
117391
115819
113915
111990
110230
108779
107684
106700
106226
105904
105688
105515
105316
104992
122229
121928
122802
122308
121257
119920
118434
116564
114587
107404
106673
106059
105796
105619
105474
105294
104985
122370
122268
123278
122966
122156
121048
119669
105974
105671
105544
105431
105272
104979
122508
122604
123754
123638
123004
122300
101567
101567
105741
105610
105476
105392
105253
104973
122621
122881
124156
124234
123860
123518
101567
101568
101568
101567
101567
105501
105427
105364
105238
104968
122687
123040
124388
124584
124457
101567
101568
101568
101568
101568
101567
105437
105401
105349
105231
104966
122687
123040
124388
124584
124588
101567
101568
101568
101568
101568
101567
105423
105401
105349
105231
104966
122621
122881
124156
124234
124218
101567
101568
101568
101567
101567
105463
105427
105364
105238
104968
122508
122604
123754
123638
123464
122940
101567
101567
101567
101567
105552
105476
105392
105253
104973
122370
122268
123278
122966
122156
121693
105847
105671
105544
105431
105272
104979
122229
121928
122802
122308
121257
119920
118948
117273
106518
106059
105796
105619
105474
105294
104985
122102
121623
122380
121748
120547
119072
117391
116165
114091
112100
110205
108703
107567
106700
106226
105904
105688
105515
105316
104992
121999
121372
122039
121311
120015
118468
116761
114960
113135
111393
109851
108576
107587
106856
106341
105988
105744
105551
105335
104998
121921
121185
121788
120993
119639
118052
116340
114585
112861
111251
109823
108624
107668
106942
106415
106045
105784
105577
105350
105003
121871
121062
121623
120788
119400
117792
116080
114353
112687
111148
109786
108634
107704
106988
106458
106080
105811
105595
105360
105006
121846
121002
121542
120687
119283
117667
115956
114243
112603
111095
109763
108634
107718
107007
106477
106096
105823
105603
105365
105008
121846
121001
121541
120687
119282
117666
115955
114242
112602
111094
109762
108633
107717
107006
106476
106096
105823
105603
105365
105008
121870
121062
121622
120787
119399
117791
116079
114352
112686
111146
109785
108633
107704
106987
106457
106079
105810
105594
105360
105006
121921
121184
121787
120992
119638
118051
116339
114583
112860
111249
109822
108623
107668
106942
106415
106044
105784
105577
105350
105003
121998
121372
122039
121310
120014
118467
116760
114959
113134
111392
109850
108575
107586
106855
106341
105987
105743
105550
105335
104998
122102
121622
122379
121747
120546
119070
117389
115820
113916
111989
110230
108780
107684
106700
106226
105904
105687
105515
105316
104992
122229
121928
122801
122306
121254
119916
118432
116566
114592
107403
106673
106059
105795
105619
105474
105294
104985
122370
122268
123278
122965
122154
121049
119668
105974
105671
105544
105431
105272
104979
122508
122603
123753
123637
123008
122300
101573
101573
105741
105610
105476
105392
105253
104973
122621
122880
124155
124233
123862
123524
101573
101576
101575
101573
101573
105502
105427
105364
105238
104968
122687
123039
124387
124583
124460
101573
101576
101576
101576
101575
101573
105437
105401
105349
105231
104966
122686
123039
124387
124583
124591
101573
101576
101576
101576
101575
101573
105423
105401
105349
105231
104966
122621
122880
124155
124233
124220
101573
101576
101575
101573
101573
105463
105427
105364
105238
104968
122508
122603
123753
123637
123466
122944
101573
101573
101573
101573
105552
105476
105392
105253
104973
122369
122268
123278
122965
122154
121691
105847
105671
105544
105431
105272
104979
122229
121928
122801
122306
121254
119916
118946
117275
106518
106059
105795
105619
105474
105294
104985
122102
121622
122379
121747
120546
119070
117389
116163
114098
112100
110205
108699
107567
106700
106226
105904
105687
105515
105316
104992
121998
121372
122039
121310
120015
118467
116760
114959
113134
111392
109850
108575
107586
106855
106341
105987
105743
105550
105335
104998
121921
121184
121787
120992
119638
118051
116339
114583
112860
111250
109822
108623
107668
106942
106415
106044
105784
105577
105350
105003
121870
121062
121622
120787
119399
117791
116079
114352
112686
111146
109785
108633
107704
106987
106457
106079
105810
105594
105360
105006
121846
121001
121541
120687
119282
117666
115955
114242
112602
111094
109762
108633
107717
107006
106476
106096
105823
105603
105365
105008
121845
121000
121539
120685
119280
117664
115952
114239
112599
111091
109760
108631
107715
107004
106475
106095
105822
105603
105364
105007
121870
121060
121620
120785
119396
117789
116076
114350
112684
111144
109783
108631
107702
106985
106456
106078
105810
105594
105359
105006
121920
121183
121785
120990
119636
118049
116336
114581
112857
111247
109820
108621
107666
106940
106414
106043
105783
105576
105350
105003
121998
121370
122037
121308
120012
118464
116757
114956
113131
111390
109848
108574
107585
106854
106340
105986
105743
105550
105335
104998
122102
121620
122377
121745
120543
119067
117386
115817
113914
111987
110228
108778
107683
106699
106225
105903
105687
105515
105316
104992
122228
121926
122799
122304
121251
119913
118429
116564
114590
107402
106672
106059
105795
105618
105474
105294
104985
122369
122266
123275
122962
122151
121046
119666
105974
105671
105543
105430
105272
104978
122507
122601
123750
123634
123005
122297
101586
101586
105740
105609
105476
105392
105252
104973
122620
122878
124153
124230
123859
123521
101587
101591
101591
101586
101586
105501
105427
105364
105238
104968
122686
123037
124385
124580
124457
101587
101591
101591
101591
101591
101586
105436
105401
105349
105231
104966
122686
123037
124385
124580
124589
101587
101591
101591
101591
101591
101586
105423
105401
105349
105231
104966
122620
122878
124153
124230
124218
101587
101591
101591
101586
101586
105463
105427
105364
105238
104968
122507
122601
123750
123634
123464
122942
101586
101586
101586
101586
105552
105476
105392
105252
104973
122369
122266
123275
122962
122151
121689
105846
105671
105543
105430
105272
104978
122228
121926
122799
122304
121251
119913
118943
117272
106517
106059
105795
105618
105474
105294
104985
122102
121620
122377
121745
120543
119067
117386
116161
114095
112097
110202
108697
107566
106699
106225
105903
105687
105515
105316
104992
121998
121370
122037
121308
120012
118464
116757
114956
113131
111390
109848
108574
107585
106854
106340
105986
105743
105550
105335
104998
121920
121183
121785
120990
119636
118049
116336
114581
112857
111247
109820
108621
107666
106940
106414
106043
105783
105576
105350
105003
121870
121060
121620
120785
119396
117789
116076
114350
112684
111144
109783
108631
107702
106985
106456
106078
105810
105594
105359
105006
121845
121000
121539
120685
119280
117664
115952
114239
112599
111091
109760
108631
107715
107004
106475
106095
105822
105603
105364
105007
121844
120998
121537
120681
119277
117660
115948
114235
112595
111088
109756
108628
107713
107002
106473
106093
105821
105602
105364
105007
121869
121058
121618
120782
119393
117785
116072
114345
112680
111140
109779
108629
107700
106983
106454
106077
105809
105593
105359
105006
121920
121181
121782
120987
119632
118045
116332
114576
112853
111244
109817
108618
107664
106939
106412
106042
105783
105576
105349
105003
121997
121368
122034
121304
120008
118459
116752
114952
113127
111386
109844
108571
107582
106852
106339
105985
105742
105549
105334
104998
122101
121618
122374
121741
120539
119062
117381
115813
113910
111983
110225
108775
107681
106697
106224
105902
105686
105514
105316
104992
122228
121924
122796
122300
121247
119909
118425
116560
114586
107400
106671
106057
105794
105617
105473
105294
104985
122368
122264
123272
122958
122147
121042
119662
105973
105670
105543
105430
105272
104978
122506
122599
123747
123630
123000
122293
101608
101608
105740
105609
105475
105392
105252
104973
122619
122876
124150
124226
123855
123516
101608
101615
101615
101608
101608
105501
105426
105364
105238
104968
122685
123035
124382
124576
124453
101608
101615
101615
101615
101615
101608
105436
105400
105349
105231
104966
122685
123035
124382
124576
124585
101608
101615
101615
101615
101615
101608
105423
105400
105349
105231
104966
122619
122876
124150
124226
124214
101608
101615
101615
101608
101608
105462
105426
105364
105238
104968
122506
122599
123747
123630
123459
122937
101608
101608
101608
101608
105551
105475
105392
105252
104973
122368
122264
123272
122958
122147
121685
105845
105670
105543
105430
105272
104978
122228
121924
122796
122300
121247
119909
118939
117268
106516
106057
105794
105617
105473
105294
104985
122101
121618
122374
121741
120539
119062
117381
116157
114091
112094
110199
108694
107563
106697
106224
105902
105686
105514
105316
104992
121997
121368
122034
121304
120008
118459
116752
114952
113127
111386
109844
108571
107582
106852
106339
105985
105742
105549
105334
104998
121920
121181
121782
120987
119632
118045
116332
114577
112853
111244
109817
108618
107664
106939
106412
106042
105783
105576
105349
105003
121869
121058
121618
120782
119393
117785
116072
114345
112680
111140
109779
108629
107700
106983
106454
106077
105809
105593
105359
105006
121844
120998
121537
120681
119277
117660
115948
114235
112595
111088
109756
108628
107713
107002
106473
106093
105821
105602
105364
105007
121843
120996
121533
120677
119271
117654
115942
114230
112590
111082
109752
108625
107710
106999
106471
106092
105820
105601
105363
105007
121868
121056
121614
120777
119387
117779
116066
114339
112674
111135
109775
108625
107696
106981
106452
106075
105807
105592
105359
105006
121918
121178
121778
120982
119626
118038
116325
114570
112848
111239
109812
108615
107661
106936
106410
106040
105781
105575
105349
105002
121996
121365
122030
121299
120001
118452
116746
114946
113122
111382
109840
108567
107579
106850
106337
105984
105741
105548
105334
104998
122100
121615
122370
121736
120532
119055
117374
115807
113904
111978
110220
108771
107677
106695
106222
105901
105685
105514
105315
104992
122226
121921
122792
122295
121241
119902
118419
116554
114580
107396
106668
106056
105793
105617
105473
105294
104985
122366
122261
123269
122953
122141
121036
119656
105971
105669
105542
105430
105272
104978
122504
122596
123744
123625
122995
122288
101638
101638
105739
105608
105475
105391
105252
104973
122618
122874
124147
124222
123850
123511
101638
101648
101648
101638
101638
105500
105426
105364
105238
104968
122683
123034
124380
124572
124448
101638
101648
101649
101648
101647
101638
105435
105400
105349
105231
104966
122683
123034
124380
124572
124580
101638
101648
101649
101648
101647
101638
105422
105400
105349
105231
104966
122618
122874
124147
124222
124208
101639
101648
101648
101638
101638
105462
105426
105364
105238
104968
122504
122596
123744
123625
123454
122932
101638
101638
101638
101638
105550
105475
105391
105252
104973
122366
122261
123268
122953
122141
121679
105844
105669
105542
105430
105272
104978
122226
121921
122792
122295
121241
119902
118934
117262
106514
106056
105793
105617
105473
105294
104985
122100
121615
122370
121736
120532
119055
117374
116151
114086
112088
110194
108690
107560
106695
106222
105901
105685
105514
105315
104992
121996
121365
122030
121299
120001
118452
116746
114946
113122
111381
109840
108567
107580
106850
106337
105984
105741
105548
105334
104998
121918
121178
121778
120982
119626
118038
116325
114570
112848
111239
109812
108615
107661
106936
106410
106040
105781
105575
105349
105002
121868
121056
121614
120777
119387
117779
116066
114340
112674
111135
109775
108625
107696
106981
106452
106075
105807
105592
105359
105006
121843
120996
121533
120677
119271
117654
115942
114230
112590
111083
109752
108625
107710
106999
106471
106092
105820
105601
105363
105007
121842
120992
121528
120671
119265
117646
115935
114222
112582
111076
109746
108619
107705
106996
106468
106089
105818
105600
105363
105007
121866
121052
121609
120771
119380
117771
116058
114331
112666
111129
109769
108620
107692
106977
106449
106073
105805
105591
105358
105005
121917
121174
121773
120975
119618
118029
116316
114561
112840
111232
109807
108611
107657
106933
106408
106038
105780
105574
105348
105002
121994
121361
122024
121291
119992
118441
116734
114936
113115
111376
109835
108563
107577
106848
106335
105982
105739
105547
105333
104998
122098
121611
122364
121727
120520
119041
117360
115798
113896
111970
110214
108766
107674
106695
106222
105900
105684
105513
105315
104992
122224
121916
122786
122285
121228
119889
118407
116545
114573
107392
106666
106055
105792
105616
105472
105293
104985
122364
122256
123263
122944
122129
121027
119648
105969
105669
105542
105429
105271
104978
122502
122592
123740
123617
122986
122281
101677
101677
105737
105607
105475
105391
105252
104973
122615
122871
124144
124214
123842
123503
101678
101691
101690
101678
101677
105500
105426
105364
105239
104969
122681
123031
124379
124567
124442
101678
101691
101693
101692
101690
101677
105435
105400
105349
105232
104966
122681
123031
124379
124567
124574
101678
101691
101693
101692
101690
101677
105421
105400
105349
105232
104966
122615
122871
124144
124214
124201
101678
101691
101690
101678
101677
105461
105426
105364
105239
104969
122502
122592
123739
123617
123445
122924
101678
101678
101678
101677
105550
105475
105391
105252
104973
122364
122256
123263
122944
122128
121671
105843
105669
105542
105429
105271
104978
122224
121916
122786
122285
121227
119889
118925
117254
106511
106055
105792
105616
105472
105293
104985
122098
121611
122364
121727
120520
119041
117360
116141
114078
112081
110187
108683
107557
106695
106222
105900
105684
105513
105315
104992
121994
121361
122024
121291
119992
118441
116734
114936
113115
111376
109835
108563
107577
106848
106335
105982
105739
105547
105333
104998
121917
121174
121773
120975
119618
118029
116316
114561
112840
111232
109807
108611
107657
106933
106408
106038
105780
105574
105348
105002
121866
121052
121609
120771
119380
117771
116058
114331
112666
111129
109769
108620
107692
106977
106449
106073
105806
105591
105358
105005
121842
120992
121528
120671
119265
117646
115935
114222
112582
111076
109746
108619
107705
106996
106468
106089
105818
105600
105363
105007
121840
120988
121522
120663
119256
117637
115924
114212
112573
111067
109738
108613
107700
106991
106464
106086
105816
105598
105362
105007
121865
121047
121603
120763
119371
117760
116047
114321
112657
111120
109762
108614
107687
106973
106446
106070
105803
105590
105357
105005
121915
121170
121766
120967
119608
118017
116303
114550
112830
111224
109801
108606
107653
106930
106405
106036
105778
105572
105347
105002
121992
121356
122017
121282
119979
118426
116718
114923
113105
111369
109831
108560
107575
106847
106333
105980
105738
105546
105333
104997
122096
121605
122356
121715
120503
119018
117337
115782
113883
111963
110208
108764
107675
106696
106222
105899
105683
105512
105314
104991
122222
121910
122777
122271
121205
119861
118375
116537
114587
107386
106669
106057
105792
105615
105471
105293
104985
122361
122250
123254
122928
122104
121007
119636
105968
105668
105541
105429
105271
104978
122499
122586
123730
123600
122966
122264
101723
101723
105735
105607
105474
105391
105252
104973
122612
122865
124136
124198
123822
123481
101727
101746
101745
101728
101728
105500
105426
105363
105239
104969
122677
123025
124372
124552
124425
101724
101746
101750
101749
101745
101724
105434
105400
105349
105232
104967
122677
123025
124372
124552
124558
101724
101746
101750
101749
101745
101726
105420
105400
105349
105232
104967
122612
122865
124136
124198
124183
101729
101746
101745
101729
101723
105460
105426
105363
105239
104969
122498
122586
123730
123600
123426
122909
101729
101725
101727
101724
105550
105474
105391
105252
104973
122361
122250
123254
122928
122104
121656
105839
105668
105541
105429
105271
104978
122222
121910
122777
122271
121205
119861
118906
117242
106512
106057
105792
105615
105471
105293
104985
122096
121605
122356
121715
120503
119018
117337
116118
114087
112078
110176
108662
107557
106696
106222
105899
105683
105512
105314
104991
121992
121356
122017
121282
119979
118426
116718
114923
113105
111369
109831
108560
107575
106847
106333
105980
105738
105546
105333
104997
121915
121170
121767
120967
119608
118017
116303
114550
112830
111224
109801
108606
107653
106930
106405
106036
105778
105572
105347
105002
121865
121047
121603
120763
119371
117760
116047
114321
112657
111120
109762
108614
107687
106973
106446
106070
105803
105590
105357
105005
121840
120988
121522
120663
119256
117637
115924
114212
112573
111067
109738
108613
107700
106991
106464
106086
105816
105598
105362
105007
121838
120982
121514
120654
119245
117625
115912
114200
112561
111056
109729
108605
107693
106986
106460
106083
105813
105596
105361
105006
121862
121042
121595
120753
119359
117748
116034
114308
112645
111109
109753
108606
107681
106967
106441
106067
105801
105588
105356
105005
121913
121163
121758
120956
119596
118004
116290
114536
112818
111214
109792
108598
107647
106925
106400
106032
105775
105571
105346
105002
121990
121349
122008
121270
119966
118411
116703
114908
113093
111359
109822
108553
107570
106842
106330
105977
105735
105545
105332
104997
122093
121598
122346
121703
120488
119001
117319
115766
113869
111954
110201
108760
107672
106693
106219
105897
105681
105510
105313
104991
122219
121903
122767
122258
121188
119841
118346
116528
114604
101731
101731
101730
107379
106670
106055
105790
105613
105470
105292
104985
122358
122242
123243
122914
122085
120986
119622
101731
101735
101742
101744
101738
101731
101729
105965
105667
105540
105428
105271
104978
122495
122577
123719
123585
122947
122244
101731
101741
101762
101776
101779
101769
101749
101732
105733
105607
105473
105390
105252
104973
122608
122856
124124
124181
123800
123454
101735
101762
101811
101818
101817
101809
101776
101744
101730
105500
105425
105363
105238
104969
122673
123016
124360
124536
124406
101731
101743
101777
101819
101824
101823
101817
101786
101758
101731
105432
105399
105348
105231
104967
122673
123016
124360
124536
124541
101732
101745
101780
101819
101824
101823
101817
101788
101761
101732
105419
105399
105348
105231
104967
122608
122856
124124
124181
124164
101731
101739
101770
101811
101818
101817
101809
101782
101752
101730
105459
105425
105363
105238
104969
122495
122577
123719
123585
123407
122891
101732
101751
101777
101787
101789
101782
101764
101737
101730
105549
105473
105390
105252
104973
122358
122242
123243
122914
122084
121640
101731
101734
101746
101759
101762
101752
101738
101730
105835
105667
105540
105428
105271
104978
122219
121903
122767
122258
121188
119840
118888
117233
101731
101733
101733
101731
101730
106513
106055
105790
105613
105470
105292
104985
122093
121598
122346
121703
120488
119001
117319
116095
114094
112074
110164
108641
107554
106693
106219
105897
105681
105510
105313
104991
121990
121349
122008
121270
119966
118411
116703
114908
113093
111359
109822
108553
107570
106842
106330
105977
105735
105545
105332
104997
121913
121163
121758
120956
119596
118004
116290
114536
112818
111214
109792
108598
107647
106925
106400
106033
105775
105571
105346
105002
121862
121042
121595
120753
119359
117748
116034
114308
112645
111109
109753
108606
107681
106967
106441
106067
105801
105588
105356
105005
121838
120982
121514
120654
119245
117625
115912
114200
112561
111056
109729
108605
107693
106986
106460
106083
105813
105596
105361
105006
121835
120975
121505
120642
119231
117610
115897
114185
112547
111043
109717
108594
107684
106978
106454
106078
105810
105594
105360
105006
121859
121034
121585
120741
119346
117734
116020
114294
112631
111096
109741
108595
107672
106960
106436
106062
105798
105586
105355
105004
121910
121156
121748
120944
119582
117990
116276
114522
112804
111200
109779
108587
107637
106917
106395
106028
105772
105569
105345
105001
121986
121341
121997
121258
119953
118399
116691
114895
113078
111343
109808
108541
107559
106833
106323
105973
105732
105543
105331
104997
122089
121589
122335
121691
120477
118993
117312
115754
113856
111939
110187
108747
107660
106682
106211
105892
105678
105509
105312
104991
122215
121893
122754
122246
121181
119838
118345
116508
114559
107372
106659
106047
105785
105611
105468
105291
104984
122354
122232
123230
122902
122079
120977
119606
105961
105663
105537
105426
105270
104978
122491
122567
123705
123574
122938
122233
101865
101873
105730
105603
105471
105389
105251
104972
122604
122845
124110
124170
123792
123450
101876
101915
101913
101880
101861
105497
105423
105361
105237
104968
122669
123005
124344
124523
124396
101866
101916
101920
101918
101912
101874
105431
105397
105347
105230
104966
122669
123005
124344
124523
124530
101875
101916
101920
101918
101912
101876
105418
105397
105347
105230
104966
122604
122845
124109
124170
124154
101882
101915
101913
101886
101873
105457
105423
105361
105237
104968
122491
122567
123705
123574
123397
122878
101864
101877
101878
101874
105546
105471
105389
105251
104972
122354
122232
123230
122902
122079
121626
105833
105663
105537
105426
105270
104978
122215
121893
122754
122246
121181
119838
118876
117213
106503
106047
105785
105611
105468
105291
104984
122089
121589
122335
121691
120477
118993
117312
116089
114060
112053
110155
108645
107543
106682
106211
105892
105678
105509
105312
104991
121986
121341
121997
121258
119953
118399
116691
114895
113078
111343
109808
108541
107559
106833
106323
105973
105732
105543
105331
104997
121910
121156
121748
120944
119582
117990
116276
114522
112804
111200
109779
108587
107637
106917
106395
106028
105772
105569
105345
105001
121859
121034
121585
120741
119346
117734
116020
114294
112631
111096
109741
108595
107672
106960
106436
106062
105798
105586
105355
105004
121835
120975
121505
120642
119231
117610
115897
114185
112547
111043
109717
108594
107684
106978
106454
106078
105810
105594
105360
105006
121832
120966
121493
120627
119215
117593
115879
114167
112530
111028
109703
108582
107674
106970
106448
106073
105806
105592
105358
105005
121856
121025
121572
120726
119329
117716
116002
114276
112614
111080
109726
108583
107661
106952
106429
106057
105794
105583
105353
105004
121906
121146
121735
120928
119565
117973
116258
114505
112786
111183
109763
108573
107626
106908
106388
106023
105769
105566
105344
105001
121982
121331
121983
121242
119936
118383
116675
114878
113059
111325
109791
108526
107546
106823
106316
105968
105729
105540
105329
104996
122085
121578
122319
121674
120462
118981
117300
115739
113841
111921
110171
108730
107645
106670
106203
105887
105674
105506
105311
104990
122210
121881
122738
122229
121167
119825
118345
116485
114516
107365
106645
106039
105780
105607
105466
105290
104984
122349
122218
123212
122884
122065
120963
119584
105956
105658
105534
105424
105268
104977
122486
122552
123685
123554
122924
122216
101996
101995
105727
105599
105468
105387
105250
104972
122599
122828
124087
124150
123778
123438
101997
102034
102032
101996
101992
105493
105421
105360
105236
104968
122664
122987
124320
124500
124378
101998
102036
102037
102035
102030
101992
105430
105395
105345
105229
104966
122664
122987
124320
124500
124510
101998
102036
102037
102035
102030
101994
105416
105395
105345
105229
104966
122599
122828
124087
124150
124137
102000
102034
102032
101998
101992
105455
105421
105360
105236
104968
122486
122552
123685
123554
123382
122859
101996
101997
101996
101993
105542
105468
105387
105250
104972
122349
122218
123212
122884
122065
121607
105831
105658
105534
105424
105268
104977
122210
121881
122738
122229
121167
119825
118862
117193
106492
106039
105780
105607
105466
105290
104984
122085
121578
122319
121674
120462
118981
117300
116081
114023
112031
110144
108648
107529
106670
106203
105887
105674
105506
105311
104990
121982
121331
121983
121242
119936
118383
116675
114878
113059
111325
109791
108526
107546
106823
106316
105968
105729
105540
105329
104996
121906
121146
121735
120928
119565
117973
116258
114505
112786
111183
109763
108573
107626
106908
106388
106023
105769
105566
105344
105001
121856
121025
121572
120726
119329
117716
116002
114276
112614
111080
109726
108583
107661
106952
106429
106057
105794
105583
105353
105004
121832
120966
121493
120627
119215
117593
115879
114167
112530
111028
109703
108582
107674
106970
106448
106073
105806
105592
105358
105005
121827
120955
121478
120609
119194
117571
115857
114145
112510
111009
109686
108568
107662
106960
106440
106068
105802
105589
105356
105005
121851
121014
121557
120707
119308
117694
115979
114254
112593
111061
109709
108568
107649
106942
106421
106052
105790
105580
105352
105003
121901
121134
121718
120909
119544
117950
116235
114482
112764
111163
109746
108558
107613
106898
106380
106018
105765
105563
105342
105000
121977
121317
121965
121221
119914
118359
116651
114854
113036
111304
109773
108511
107533
106813
106308
105962
105725
105538
105328
104996
122079
121563
122300
121652
120438
118956
117275
115716
113819
111901
110154
108716
107633
106661
106196
105881
105671
105504
105310
104990
122204
121865
122716
122205
121141
119798
118321
116459
114492
107355
106637
106033
105775
105604
105464
105289
104983
122342
122200
123188
122858
122036
120936
119556
105951
105654
105531
105422
105267
104977
122479
122532
123659
123526
122896
122186
102137
102135
105723
105595
105466
105385
105248
104971
122591
122807
124059
124118
123749
123409
102139
102177
102173
102133
102131
105490
105418
105358
105235
104967
122656
122965
124290
124468
124347
102141
102180
102179
102175
102170
102130
105428
105393
105344
105228
104965
122656
122965
124290
124468
124479
102141
102180
102179
102175
102170
102131
105415
105393
105344
105228
104965
122591
122807
124059
124118
124107
102140
102177
102173
102134
102130
105453
105418
105358
105235
104967
122479
122532
123659
123526
123354
122829
102138
102137
102135
102132
105539
105466
105385
105248
104971
122342
122200
123188
122858
122036
121578
105826
105654
105531
105422
105267
104977
122204
121865
122716
122205
121141
119798
118834
117166
106484
106033
105775
105604
105464
105289
104983
122079
121563
122300
121652
120438
118956
117275
116058
113999
112011
110128
108636
107517
106661
106196
105881
105671
105504
105310
104990
121977
121317
121965
121221
119914
118359
116651
114854
113036
111304
109773
108511
107534
106813
106308
105962
105725
105538
105328
104996
121901
121134
121718
120909
119544
117950
116235
114482
112764
111163
109746
108558
107613
106898
106380
106018
105765
105563
105342
105000
121851
121014
121557
120707
119308
117694
115979
114254
112593
111061
109709
108568
107649
106942
106421
106052
105790
105580
105352
105003
121827
120955
121478
120609
119194
117571
115857
114145
112510
111009
109686
108568
107662
106960
106440
106068
105802
105589
105356
105005
121822
120942
121460
120587
119169
117544
115830
114119
112484
110986
109666
108551
107648
106949
106431
106061
105797
105586
105355
105004
121846
121000
121538
120685
119283
117666
115951
114227
112567
111038
109689
108551
107635
106931
106413
106045
105785
105577
105350
105003
121895
121119
121698
120885
119516
117921
116206
114453
112738
111139
109725
108541
107600
106887
106372
106011
105760
105560
105340
105000
121970
121301
121943
121194
119884
118328
116620
114824
113008
111280
109752
108494
107520
106803
106300
105956
105721
105535
105326
104995
122072
121545
122276
121622
120406
118922
117241
115686
113791
111877
110133
108700
107620
106651
106188
105876
105667
105501
105308
104989
122196
121844
122689
122172
121105
119761
118288
116427
114462
107344
106628
106026
105771
105601
105462
105287
104983
122333
122178
123159
122823
121998
120899
119520
105945
105651
105529
105420
105266
104977
122469
122508
123627
123489
122860
122148
102298
102295
105719
105592
105463
105383
105247
104971
122581
122782
124025
124080
123712
123370
102302
102343
102338
102292
102289
105488
105417
105357
105234
104967
122645
122939
124256
124429
124309
102305
102348
102345
102340
102333
102288
105426
105392
105343
105227
104965
122645
122939
124256
124429
124441
102305
102348
102345
102340
102333
102288
105413
105392
105343
105227
104965
122581
122782
124025
124080
124070
102303
102343
102338
102292
102288
105451
105417
105357
105234
104967
122469
122508
123627
123489
123317
122791
102301
102299
102295
102291
105536
105463
105383
105247
104971
122333
122178
123159
122823
121998
121541
105821
105651
105529
105420
105266
104977
122196
121844
122689
122172
121105
119761
118799
117133
106476
106026
105771
105601
105462
105287
104983
122072
121545
122276
121622
120406
118922
117241
116027
113971
111986
110108
108620
107505
106651
106188
105876
105667
105501
105308
104989
121970
121301
121943
121194
119884
118328
116620
114824
113008
111280
109752
108494
107520
106803
106300
105956
105721
105535
105326
104995
121895
121119
121698
120885
119516
117921
116206
114453
112738
111139