/*--------------------------------*- C++ -*----------------------------------*\
  =========                 |
  \\      /  F ield         | OpenFOAM: The Open Source CFD Toolbox
   \\    /   O peration     | Website:  https://openfoam.org
    \\  /    A nd           | Version:  11
     \\/     M anipulation  |
\*---------------------------------------------------------------------------*/
FoamFile
{
    format      ascii;
    class       surfaceScalarField;
    location    "0.0002";
    object      phi;
}
// * * * * * * * * * * * * * * * * * * * * * * * * * * * * * * * * * * * * * //

dimensions      [1 0 -1 0 0 0 0];

internalField   nonuniform List<scalar> 
62564
(
0.00269242
-8.67462e-06
2.51246e-07
0.00279382
-3.1691e-05
5.78891e-07
0.00270647
-5.55146e-05
8.06186e-07
0.00252987
-7.95378e-05
1.0777e-06
0.00231453
-0.000100826
1.32095e-06
0.0020862
-0.000114849
1.50053e-06
0.00185755
-0.000117829
1.60904e-06
0.00163128
-0.00010748
1.64835e-06
0.00140382
-8.34359e-05
1.59663e-06
0.00117322
-5.18075e-05
1.47337e-06
0.000944152
-2.28878e-05
1.31529e-06
0.000723662
-1.59912e-06
1.15223e-06
0.000519801
9.55938e-06
9.95351e-07
0.000337334
1.32815e-05
8.44021e-07
0.000178235
1.29654e-05
6.87709e-07
4.39181e-05
1.06849e-05
5.37308e-07
-6.34208e-05
7.82423e-06
3.96312e-07
-0.000139177
5.11928e-06
2.67115e-07
-0.000174317
2.79682e-06
1.49409e-07
9.43405e-07
5.11792e-08
0.00267572
-1.80194e-05
2.47803e-07
0.0027773
-6.52512e-05
5.85727e-07
0.00269105
-0.000114266
8.17816e-07
0.00251781
-0.000165113
1.10295e-06
0.0023092
-0.000211573
1.33638e-06
0.00209081
-0.000242983
1.48985e-06
0.00187371
-0.000250239
1.56324e-06
0.0016593
-0.000229656
1.56943e-06
0.00143841
-0.000175951
1.53076e-06
0.00120501
-0.000102586
1.4534e-06
0.000968279
-3.91009e-05
1.33606e-06
0.000737391
6.86361e-06
1.18921e-06
0.000525623
2.73293e-05
1.02286e-06
0.000338476
3.18403e-05
8.49787e-07
0.000176734
2.9123e-05
6.85351e-07
4.1426e-05
2.28477e-05
5.31785e-07
-6.59648e-05
1.61291e-05
3.90451e-07
-0.000141455
1.0309e-05
2.61469e-07
-0.000176344
5.55585e-06
1.45893e-07
1.86225e-06
5.03719e-08
0.00264116
-2.79809e-05
2.50587e-07
0.00274169
-0.000101177
6.04121e-07
0.00265651
-0.000178403
8.55337e-07
0.00248955
-0.000262513
1.16713e-06
0.00229535
-0.000343499
1.41262e-06
0.00209979
-0.000401076
1.54768e-06
0.00190705
-0.000412922
1.55083e-06
0.00172106
-0.000385794
1.50607e-06
0.00151715
-0.000290554
1.4602e-06
0.00127453
-0.000147412
1.42751e-06
0.00101989
-3.90131e-05
1.33535e-06
0.00076342
4.05653e-05
1.20565e-06
0.00053549
6.23296e-05
1.02867e-06
0.000338999
6.13338e-05
8.34916e-07
0.00017236
5.13045e-05
6.71387e-07
3.56573e-05
3.73571e-05
5.19387e-07
-7.13958e-05
2.49448e-05
3.77866e-07
-0.00014608
1.53599e-05
2.54094e-07
-0.000180339
8.10432e-06
1.42355e-07
2.68871e-06
4.74074e-08
0.00258784
-3.81627e-05
2.62758e-07
0.00268459
-0.00013849
6.42487e-07
0.00259773
-0.000247403
9.32933e-07
0.00243677
-0.000374422
1.28573e-06
0.00226433
-0.000507798
1.54003e-06
0.00210976
-0.000611326
1.55651e-06
0.00195158
-0.000616842
1.46647e-06
0.001822
-0.000148652
1.1557e-06
-0.000148613
-0.000155235
-0.000151534
0.0016598
-0.000127096
1.29501e-06
-9.90582e-05
-0.000128803
-9.97155e-05
0.00138686
-5.24656e-05
1.40769e-06
-2.99123e-05
-5.2689e-05
-2.98347e-05
0.00110178
-1.1487e-05
1.33534e-06
7.09047e-06
-1.16227e-05
7.15732e-06
0.000794839
2.44571e-05
1.21624e-06
3.75952e-05
2.4624e-05
3.82234e-05
0.000541543
3.2989e-05
1.03904e-06
2.99835e-05
3.32979e-05
3.02095e-05
0.000333778
0.000106093
7.82559e-07
0.000161879
8.06446e-05
6.46383e-07
2.51215e-05
5.33977e-05
5.06892e-07
-8.0248e-05
3.33754e-05
3.65337e-07
-0.000153141
1.96285e-05
2.44138e-07
-0.000186214
1.00985e-05
1.34455e-07
3.31476e-06
4.48202e-08
0.00251501
-4.73358e-05
2.69096e-07
0.00260179
-0.000172664
7.05299e-07
0.00250446
-0.000314391
1.05039e-06
0.00234024
-0.000493961
1.45389e-06
0.0021915
-0.000709958
1.69009e-06
0.00212717
-0.000929475
1.6115e-06
0.000482955
-0.000235977
1.13379e-06
-0.000195471
-0.000245238
-0.000198851
0.000506603
0.000499434
0.000524487
0.000478423
-0.00018694
-1.27575e-06
0.000476942
-0.000171533
-8.4857e-07
-0.000473839
-0.000459313
0.000418594
-4.97376e-05
6.41245e-07
-0.000372139
0.000334992
-6.89411e-06
5.81705e-07
-0.000295674
0.000247772
4.35238e-05
5.41677e-07
-0.000197215
0.00015728
4.90031e-05
2.55863e-07
0.00031188
3.23377e-05
6.72767e-07
3.52652e-05
3.24304e-05
3.54044e-05
-0.000122734
-0.000125843
-0.000123231
-0.00012664
0.000140182
0.00011208
5.85256e-07
7.85154e-06
6.7364e-05
4.35624e-07
-9.28009e-05
3.90587e-05
3.34427e-07
-0.000162386
2.2006e-05
2.26822e-07
-0.000193601
1.10702e-05
1.27013e-07
3.60247e-06
4.20851e-08
0.00242391
-5.30009e-05
2.7735e-07
0.00248982
-0.000194127
7.8682e-07
0.00236227
-0.000360619
1.18282e-06
0.00216355
-0.000589803
1.55143e-06
0.00202483
-0.000936744
1.78119e-06
0.000507782
-0.000313813
8.70048e-07
0.00051176
0.000530012
0.000530869
-0.000371904
-0.000325678
-0.000378923
0.000527876
-0.000303506
-1.54272e-06
-0.00052003
0.000663515
-0.000405871
-9.91931e-07
0.000210737
0.000382082
-0.000403091
-8.1641e-07
-0.000147293
0.000192148
3.94599e-07
-6.466e-05
-0.000118794
9.25711e-05
3.98653e-05
2.70987e-07
0.0001012
3.59843e-05
5.27798e-07
-6.33778e-05
-6.33566e-05
-6.37605e-05
-6.39479e-05
2.80265e-05
3.63641e-05
2.81611e-05
-1.64691e-05
7.0749e-05
4.02128e-07
-0.000108208
3.90065e-05
2.93237e-07
-0.000172931
2.14503e-05
2.0976e-07
-0.000201743
1.06665e-05
1.19706e-07
3.46962e-06
4.05704e-08
0.00232074
-5.24493e-05
2.82438e-07
0.00235348
-0.000191278
8.80155e-07
0.0021676
-0.000357685
1.28839e-06
0.00186443
-0.000587085
1.53721e-06
0.000400349
-0.000223839
7.31407e-07
0.000355053
0.000422441
0.000373111
-0.000263007
-0.000231624
-0.000268806
0.000393953
-0.000355074
-1.74459e-06
0.000546258
-0.000580907
-3.77775e-07
-6.23868e-05
2.65158e-05
5.1993e-05
1.34479e-07
-4.39289e-05
1.46002e-05
2.99677e-07
-1.17209e-05
-7.94334e-06
-1.15906e-05
-7.78978e-06
1.00036e-05
1.46194e-05
9.9713e-06
-0.000123975
3.23619e-05
2.62112e-07
-0.000183295
1.78764e-05
1.93371e-07
-0.000209592
8.86853e-06
1.14541e-07
2.90994e-06
3.96558e-08
0.00221718
-4.36652e-05
2.83773e-07
0.00221205
-0.000159242
9.91287e-07
0.0019662
-0.000304575
1.42634e-06
0.000385513
-0.000527331
1.29989e-06
0.000378335
0.000419962
0.000412394
0.000339895
-0.000219613
-2.27655e-06
0.00033154
0.000390646
-0.000469534
-3.2778e-06
-0.000305202
4.79999e-10
-1.86524e-08
-5.67081e-07
-3.78035e-09
6.51185e-09
-1.78935e-08
-8.93663e-07
-2.51033e-05
1.77216e-05
-3.92446e-09
-3.74396e-06
-5.79157e-06
1.18541e-05
-9.4344e-08
-0.00013719
1.96422e-05
2.20333e-07
1.60937e-05
1.67462e-05
1.66526e-05
1.73013e-05
-0.000191861
1.15715e-05
1.7997e-07
-0.000216052
5.93439e-06
1.13323e-07
2.00257e-06
4.16253e-08
0.0021291
-2.54893e-05
2.78504e-07
0.00208246
-9.29582e-05
1.08888e-06
0.00175685
-0.000180693
1.58226e-06
0.000307425
-0.000327577
1.20302e-06
0.000282563
0.000335272
0.00030793
0.000251304
-0.000177538
-1.73255e-06
0.000189804
0.000260454
-0.000282857
-2.33101e-06
1.04188e-08
5.7538e-09
-1.1404e-08
-1.70712e-08
-1.31741e-06
2.84734e-08
-3.24041e-08
-1.03897e-05
2.4103e-08
2.03982e-08
1.44759e-08
4.57921e-09
1.15247e-08
2.76656e-08
1.09097e-09
-4.80876e-08
2.2783e-08
-3.07846e-08
-1.03826e-05
1.9667e-08
2.08235e-08
3.50667e-09
9.87662e-09
4.05209e-08
1.35663e-08
-3.51608e-08
1.88199e-08
1.93945e-08
-1.95796e-08
-1.22108e-06
-5.59097e-09
-5.94764e-07
-1.06653e-08
-1.69655e-06
-8.85128e-06
4.34328e-06
-1.5793e-07
-8.06207e-06
-0.000143621
8.16308e-06
1.84747e-07
1.81539e-05
1.81639e-05
1.86282e-05
1.8606e-05
-0.000196962
5.21935e-06
1.73641e-07
-0.000220263
2.80047e-06
1.14881e-07
9.73927e-07
4.47023e-08
0.00207714
2.34221e-09
2.76158e-07
0.00199967
4.50432e-09
1.14669e-06
0.00161291
3.05609e-09
1.63151e-06
0.000233398
1.80036e-09
1.17859e-06
0.000225225
0.000254818
0.000246643
0.000123397
0.000133244
-6.64553e-05
-2.15052e-06
-1.38065e-08
-3.45293e-09
-5.68379e-07
-3.44161e-09
-3.39772e-10
-1.04289e-05
1.99445e-08
1.62887e-08
9.14538e-09
4.71826e-11
1.80476e-08
3.56853e-08
9.10164e-09
-3.8908e-08
3.27249e-08
1.23558e-09
-1.04655e-05
5.54661e-08
4.51794e-09
-1.04507e-05
2.622e-08
3.05183e-09
-1.03828e-05
2.30792e-08
1.6365e-08
6.97296e-09
3.27738e-08
1.61542e-08
-4.08896e-08
3.73447e-09
-9.62588e-09
1.70671e-08
2.78279e-09
-1.50572e-06
-1.63111e-06
-8.94824e-06
5.44222e-07
-1.28402e-07
-0.000145352
-2.62718e-09
1.72844e-07
1.8444e-05
1.83481e-05
1.88265e-05
1.87363e-05
-0.000198929
-1.46685e-09
1.70349e-07
-0.000222171
-6.37033e-10
1.164e-07
-6.74058e-11
4.7165e-08
0.00207715
2.54928e-05
2.761e-07
0.00199967
9.29673e-05
1.14669e-06
0.00161291
0.000180699
1.6303e-06
0.000225245
0.000327584
1.17873e-06
0.000233379
0.000246666
0.000254797
8.11446e-09
0.000116537
6.64597e-05
-2.25899e-06
-4.56418e-10
-1.70631e-08
3.66645e-09
-8.8762e-07
-7.65364e-09
1.75263e-08
-1.03895e-05
1.69661e-08
1.93809e-08
9.05862e-10
9.56753e-09
3.59166e-08
6.44375e-09
-4.10488e-08
3.54404e-08
3.03166e-08
-1.04357e-05
5.57431e-08
2.84513e-08
-1.04236e-05
2.3399e-08
3.27789e-08
-1.03579e-05
2.63293e-08
6.68515e-09
1.52138e-08
1.61333e-08
-4.12793e-08
6.01423e-09
1.55062e-09
2.01559e-08
-3.29392e-09
-1.20224e-06
1.17005e-09
-8.874e-06
-5.47228e-07
-1.21489e-07
-0.000145352
-8.16934e-06
1.72908e-07
1.83481e-05
1.84446e-05
1.87361e-05
1.88271e-05
-0.000198929
-5.22263e-06
1.7056e-07
-0.000222171
-2.80162e-06
1.16397e-07
-9.74111e-07
4.71003e-08
0.00212911
4.36657e-05
2.7842e-07
0.00208248
0.000159243
1.08876e-06
0.00175687
0.000304575
1.58202e-06
0.000282585
0.000527331
1.20346e-06
0.000307417
0.000307954
0.000335266
-0.000123388
0.000184192
0.000177544
-1.64147e-06
1.7749e-08
-1.74727e-08
1.66792e-08
-1.22613e-06
3.12954e-08
2.41423e-08
-1.04031e-05
2.0591e-08
1.32097e-08
4.20221e-09
2.80907e-08
1.20672e-08
-4.38148e-08
1.14464e-09
3.96301e-08
1.88474e-08
-1.03859e-05
2.21772e-08
2.6699e-09
1.19166e-08
2.24283e-08
-3.51426e-08
1.15574e-08
2.48306e-08
2.01431e-08
-1.21932e-06
9.43826e-09
5.69093e-09
-1.13613e-06
-2.24818e-08
1.63403e-06
-8.87408e-06
-4.34844e-06
-1.4975e-07
-0.000143619
-1.96495e-05
1.84964e-07
1.81594e-05
1.8158e-05
1.86014e-05
1.8632e-05
-0.00019696
-1.15738e-05
1.73533e-07
-0.000220262
-5.93536e-06
1.15074e-07
-2.00275e-06
4.46197e-08
0.00221719
5.24476e-05
2.83799e-07
0.00221206
0.000191275
9.91334e-07
0.00196622
0.000357685
1.42649e-06
0.000378359
0.000587092
1.30093e-06
0.000385492
0.000412418
0.000419941
-0.000189794
0.000306239
0.000219618
-1.86114e-06
-0.000260451
0.000469539
-3.2275e-06
-0.00024729
-4.19737e-09
-5.89259e-07
-1.13826e-08
-1.32646e-08
7.51105e-09
1.84662e-08
-1.5097e-06
-4.59023e-09
1.9526e-09
1.80747e-08
-1.20404e-06
1.55084e-09
1.05701e-08
-1.14007e-06
-1.89212e-08
8.06816e-06
-4.36157e-07
-7.50798e-06
-1.18582e-05
-1.05551e-07
-0.000137184
-3.2358e-05
2.2049e-07
1.67392e-05
1.60921e-05
1.72938e-05
1.66504e-05
-0.000191858
-1.78753e-05
1.80151e-07
-0.00021605
-8.86821e-06
1.13107e-07
-2.91001e-06
4.18199e-08
0.00232075
5.29979e-05
2.8255e-07
0.00235349
0.000194121
8.80354e-07
0.00216761
0.000360615
1.28838e-06
0.00186445
0.000589803
1.53725e-06
0.000355058
0.000936746
7.31413e-07
0.000400358
0.000373117
0.000422448
-0.000223807
-0.000263044
-0.000231589
-0.000268843
-0.000331539
0.000286169
0.00035507
-2.96653e-07
2.51055e-05
1.44034e-05
-5.20054e-05
-7.5096e-08
-4.39244e-05
-7.07391e-05
3.00163e-07
-7.9527e-06
-1.17255e-05
-7.8001e-06
-1.15956e-05
1.46036e-05
1.00099e-05
1.4621e-05
9.97572e-06
-0.000123972
-3.90011e-05
2.62198e-07
-0.000183291
-2.14488e-05
1.9324e-07
-0.000209591
-1.06644e-05
1.14568e-07
-3.46954e-06
3.96256e-08
0.00242391
4.73327e-05
2.7751e-07
0.00248982
0.000172657
7.87049e-07
0.00236227
0.000314386
1.18293e-06
0.00216355
0.000493962
1.55121e-06
0.00202479
0.000709996
1.78041e-06
0.00051173
0.000929488
8.68708e-07
-0.000313816
-0.000371925
-0.00032568
-0.000378946
0.000507813
0.000530841
0.000530034
-0.000546255
0.000693382
0.000303475
5.6385e-07
-0.000428881
0.000405882
-1.51107e-06
-9.03494e-05
0.000114124
-3.98636e-05
2.2551e-07
0.000101185
-0.000112088
5.289e-07
3.60173e-05
2.80222e-05
3.63978e-05
2.81531e-05
-6.33656e-05
-6.33834e-05
-6.39574e-05
-6.3767e-05
-1.64726e-05
-6.73655e-05
4.02649e-07
-0.000108208
-3.90576e-05
2.93179e-07
-0.000172931
-2.20044e-05
2.09839e-07
-0.000201742
-1.10694e-05
1.19651e-07
-3.60241e-06
4.05657e-08
0.002515
3.81607e-05
2.69234e-07
0.00260178
0.000138486
7.05557e-07
0.00250445
0.000247402
1.05038e-06
0.00234022
0.000374428
1.4537e-06
0.00219149
0.000507817
1.68905e-06
0.00212717
0.000611335
1.6099e-06
0.000506591
0.000616851
1.13399e-06
-0.00023597
-0.000195465
-0.000245235
-0.000198851
0.00048296
0.000524472
0.000499434
-0.000210751
0.00048687
0.00018695
-2.37157e-07
-0.000382084
0.000647437
0.000171528
-5.29155e-07
-0.000487218
-0.000485488
0.000401375
4.97453e-05
2.72007e-07
-0.000353473
0.000318367
6.90207e-06
1.56317e-07
-0.000307578
0.000322749
-4.35229e-05
1.72279e-07
6.46573e-05
-0.000194132
0.000155852
-4.90035e-05
1.14692e-07
0.000311885
-0.000106102
6.73549e-07
3.2356e-05
3.52459e-05
3.24489e-05
3.53837e-05
-0.000125818
-0.000122754
-0.000126616
-0.000123252
0.000140184
-8.06517e-05
5.85606e-07
7.8502e-06
-5.33976e-05
4.36461e-07
-9.28011e-05
-3.33763e-05
3.34534e-07
-0.000162386
-1.96279e-05
2.26899e-07
-0.0001936
-1.00979e-05
1.26893e-07
-3.3147e-06
4.20722e-08
0.00258783
2.79802e-05
2.62855e-07
0.00268458
0.000101175
6.42595e-07
0.00259772
0.000178404
9.3295e-07
0.00243676
0.000262519
1.28547e-06
0.00226432
0.00034351
1.53938e-06
0.00210975
0.000401084
1.55551e-06
0.00195158
0.000412931
1.46623e-06
0.001822
0.000385804
1.1576e-06
-0.00014867
-0.0001486
-0.000155262
-0.000151532
0.00165982
0.000290564
1.29752e-06
-0.000127117
-9.90472e-05
-0.000128825
-9.97144e-05
0.00138685
0.000147418
1.40839e-06
-5.24564e-05
-2.99049e-05
-5.26884e-05
-2.9838e-05
0.00110178
3.90288e-05
1.33525e-06
-1.15039e-05
7.1001e-06
-1.16445e-05
7.16217e-06
0.000794847
-4.05487e-05
1.218e-06
2.44623e-05
3.75857e-05
2.46209e-05
3.82065e-05
0.000541553
-6.23315e-05
1.03635e-06
3.30085e-05
2.99705e-05
3.33116e-05
3.01919e-05
0.000333783
-6.13374e-05
7.822e-07
0.000161879
-5.13086e-05
6.46085e-07
2.51228e-05
-3.73583e-05
5.0608e-07
-8.02476e-05
-2.49451e-05
3.65178e-07
-0.00015314
-1.53596e-05
2.44041e-07
-0.000186214
-8.10396e-06
1.34489e-07
-2.68857e-06
4.47661e-08
0.00264116
1.80194e-05
2.50642e-07
0.00274168
6.52515e-05
6.04227e-07
0.0026565
0.000114267
8.55264e-07
0.00248954
0.000165117
1.16696e-06
0.00229535
0.000211579
1.41233e-06
0.00209978
0.000242989
1.54707e-06
0.00190704
0.000250245
1.5506e-06
0.00172105
0.000229662
1.50611e-06
0.00151714
0.000175955
1.46025e-06
0.00127452
0.000102591
1.42704e-06
0.00101989
3.91099e-05
1.33504e-06
0.000763432
-6.85608e-06
1.20578e-06
0.000535497
-2.73273e-05
1.02828e-06
0.000339004
-3.18412e-05
8.34652e-07
0.000172361
-2.91253e-05
6.7125e-07
3.56583e-05
-2.2849e-05
5.19146e-07
-7.13949e-05
-1.61296e-05
3.77784e-07
-0.000146079
-1.03084e-05
2.54145e-07
-0.000180338
-5.5557e-06
1.42531e-07
-1.86222e-06
4.75468e-08
0.00267571
8.67474e-06
2.47857e-07
0.00277729
3.16915e-05
5.85795e-07
0.00269105
5.55157e-05
8.17835e-07
0.00251781
7.95398e-05
1.10283e-06
0.0023092
0.000100829
1.33611e-06
0.00209081
0.000114852
1.48958e-06
0.0018737
0.000117832
1.56296e-06
0.0016593
0.000107483
1.56912e-06
0.0014384
8.34377e-05
1.53028e-06
0.00120501
5.18102e-05
1.45269e-06
0.000968279
2.2892e-05
1.33536e-06
0.000737396
1.60273e-06
1.18875e-06
0.000525628
-9.55801e-06
1.0225e-06
0.000338481
-1.32818e-05
8.4957e-07
0.000176737
-1.29664e-05
6.85222e-07
4.1427e-05
-1.06849e-05
5.31623e-07
-6.59646e-05
-7.82452e-06
3.90546e-07
-0.000141454
-5.11938e-06
2.61347e-07
-0.000176344
-2.79686e-06
1.46111e-07
-9.43448e-07
5.05178e-08
0.00269242
2.51314e-07
0.00279381
5.79012e-07
0.00270646
8.06231e-07
0.00252987
1.07767e-06
0.00231453
1.32075e-06
0.00208619
1.50028e-06
0.00185754
1.60877e-06
0.00163127
1.64793e-06
0.00140381
1.59603e-06
0.00117321
1.47261e-06
0.000944152
1.31456e-06
0.000723666
1.15167e-06
0.000519805
9.94954e-07
0.000337338
8.43743e-07
0.000178238
6.87566e-07
4.39199e-05
5.37215e-07
-6.34201e-05
3.96191e-07
-0.000139177
2.67085e-07
-0.000174317
1.49352e-07
5.11356e-08
0.00269284
-8.65679e-06
3.12611e-07
0.00279434
-3.16348e-05
1.01924e-06
0.00270692
-5.54471e-05
1.64993e-06
0.00253017
-7.94243e-05
2.24846e-06
0.00231473
-0.000100713
2.70145e-06
0.00208629
-0.000114728
3.06235e-06
0.00185758
-0.000117691
3.22554e-06
0.0016313
-0.000107378
3.26644e-06
0.00140386
-8.33778e-05
3.17493e-06
0.00117324
-5.17834e-05
2.99334e-06
0.00094411
-2.2905e-05
2.76032e-06
0.000723556
-1.63235e-06
2.4494e-06
0.000519671
9.5159e-06
2.10654e-06
0.000337209
1.32469e-05
1.76213e-06
0.000178123
1.29443e-05
1.42279e-06
4.3816e-05
1.06718e-05
1.10934e-06
-6.35197e-05
7.81737e-06
8.18877e-07
-0.000139281
5.11744e-06
5.53883e-07
-0.000174427
2.79645e-06
3.11893e-07
9.43093e-07
1.0653e-07
0.00267613
-1.79988e-05
3.18365e-07
0.00277778
-6.51132e-05
1.04161e-06
0.00269145
-0.000114123
1.69173e-06
0.00251814
-0.000164952
2.2852e-06
0.00230952
-0.000211471
2.76351e-06
0.00209114
-0.000242948
3.0973e-06
0.00187416
-0.000250322
3.23076e-06
0.00165997
-0.000229931
3.26356e-06
0.00143919
-0.000176205
3.16934e-06
0.00120569
-0.000102649
3.00803e-06
0.000968742
-3.90853e-05
2.76945e-06
0.000737577
6.9672e-06
2.46468e-06
0.000525612
2.74011e-05
2.10796e-06
0.000338384
3.18466e-05
1.75253e-06
0.000176623
2.91085e-05
1.40832e-06
4.13168e-05
2.28308e-05
1.09423e-06
-6.60672e-05
1.61171e-05
8.05313e-07
-0.000141557
1.03022e-05
5.43931e-07
-0.000176452
5.5547e-06
3.06147e-07
1.86094e-06
1.04569e-07
0.00264154
-2.78978e-05
3.30972e-07
0.00274215
-0.000100974
1.08678e-06
0.00265685
-0.000178146
1.7711e-06
0.00248989
-0.000262339
2.39122e-06
0.00229585
-0.000343559
2.87966e-06
0.00210061
-0.000401477
3.17351e-06
0.00190806
-0.00041345
3.27059e-06
0.00172272
-0.000387169
3.25065e-06
0.00151924
-0.000291766
3.16646e-06
0.00127629
-0.000147591
3.01464e-06
0.00102123
-3.89384e-05
2.77646e-06
0.000764071
4.11069e-05
2.46604e-06
0.000535646
6.27461e-05
2.09601e-06
0.000338991
6.14235e-05
1.71595e-06
0.000172257
5.13437e-05
1.37725e-06
3.55378e-05
3.73508e-05
1.0652e-06
-7.15013e-05
2.4924e-05
7.79394e-07
-0.000146179
1.53514e-05
5.25216e-07
-0.000180439
8.10324e-06
2.953e-07
2.69083e-06
1.00445e-07
0.00258823
-3.80649e-05
3.47196e-07
0.00268505
-0.000138196
1.15611e-06
0.00259822
-0.000247148
1.90412e-06
0.00243753
-0.000374486
2.57258e-06
0.00226581
-0.000508705
3.09579e-06
0.00211224
-0.000613277
3.35454e-06
0.00195472
-0.000618776
3.33095e-06
0.00182689
-0.000152999
3.21297e-06
-0.000151243
-0.00015316
-0.000151335
0.00166556
-0.000129164
3.15422e-06
-9.9835e-05
-0.000129309
-9.98402e-05
0.00139145
-5.269e-05
3.03422e-06
-2.97657e-05
-5.26937e-05
-2.9704e-05
0.00110553
-1.16156e-05
2.80251e-06
7.22427e-06
-1.16184e-05
7.28811e-06
0.000796901
2.47535e-05
2.48693e-06
3.84338e-05
2.47928e-05
3.85278e-05
0.000542366
3.34842e-05
2.06701e-06
3.03405e-05
3.35422e-05
3.04202e-05
0.00033412
0.000106437
1.63536e-06
0.000161891
8.08664e-05
1.3185e-06
2.50066e-05
5.34755e-05
1.02184e-06
-8.03582e-05
3.33524e-05
7.41444e-07
-0.000153235
1.96167e-05
4.97404e-07
-0.000186308
1.01003e-05
2.78897e-07
3.31731e-06
9.46964e-08
0.00251541
-4.72042e-05
3.63503e-07
0.00260241
-0.000172396
1.25548e-06
0.00250531
-0.000314305
2.09842e-06
0.00234185
-0.000494815
2.8543e-06
0.00219501
-0.000713356
3.47175e-06
0.00213449
-0.000936812
3.71695e-06
0.00049255
-0.000241973
3.55962e-06
-0.000198066
-0.000242124
-0.000198012
0.000517834
0.000492899
0.000517949
-7.16677e-07
0.000487458
-0.000192353
7.95094e-07
-7.05876e-07
0.000482398
-0.000174979
7.8676e-07
-0.000479117
-7.86348e-07
-0.000462904
0.000421954
-4.92283e-05
7.44745e-07
-6.36026e-07
-0.00037471
0.000337676
-6.73846e-06
6.49545e-07
-5.50216e-07
-0.000297846
0.000250233
4.38758e-05
5.84714e-07
-0.000198539
-3.81165e-07
0.000158343
4.98333e-05
4.52325e-07
0.000313157
3.25053e-05
1.50819e-06
3.55278e-05
3.24973e-05
3.55645e-05
-0.000123387
-0.000126876
-0.000123455
-0.000126913
0.000140462
0.000112844
1.2192e-06
7.80258e-06
6.75442e-05
9.31843e-07
-9.2908e-05
3.90493e-05
6.83804e-07
-0.000162485
2.19922e-05
4.59929e-07
-0.000193689
1.107e-05
2.58933e-07
3.6078e-06
8.81703e-08
0.00242438
-5.28983e-05
3.81408e-07
0.00249062
-0.000193948
1.38171e-06
0.00236341
-0.00036084
2.33914e-06
0.00216556
-0.000591846
3.16156e-06
0.00203015
-0.000944793
3.83129e-06
0.000520473
-0.000322538
3.88305e-06
0.000523165
0.000520574
0.000522661
-0.00037877
-0.000322712
-0.000378426
-8.31405e-07
0.000540371
-0.000311266
8.72877e-07
-3.19461e-07
-0.000527022
0.000653248
-0.000395701
6.94865e-07
0.000217017
5.95111e-08
0.000370907
-0.000392095
2.19517e-07
-3.43776e-07
-0.000143345
0.000189116
3.5782e-07
-6.48953e-05
-2.94946e-07
-0.000119574
9.35255e-05
4.00205e-05
3.26911e-07
0.000101733
3.64387e-05
1.10569e-06
-6.38899e-05
-6.39754e-05
-6.38998e-05
-6.39204e-05
2.82887e-05
3.6396e-05
2.8317e-05
-1.64519e-05
7.1061e-05
8.48882e-07
-0.00010831
3.89947e-05
6.23033e-07
-0.000173034
2.14326e-05
4.2185e-07
-0.000201831
1.06648e-05
2.38712e-07
3.47367e-06
8.31461e-08
0.00232124
-5.2383e-05
3.92584e-07
0.00235437
-0.000191207
1.53385e-06
0.0021685
-0.000357979
2.60847e-06
0.00186492
-0.000589306
3.32246e-06
0.000411449
-0.000229628
3.83372e-06
0.000363606
0.000411504
0.000363417
-0.000268829
-0.000229856
-0.000268979
-8.26751e-07
0.000404848
-0.000365741
8.19326e-07
2.15528e-07
0.000536885
-0.000571572
3.0255e-07
-2.0071e-07
-6.09529e-05
2.66555e-05
5.11885e-05
2.36593e-07
-4.38799e-05
1.46327e-05
6.91752e-07
-1.17327e-05
-7.90253e-06
-1.17399e-05
-7.90626e-06
1.00044e-05
1.46377e-05
1.00238e-05
-0.000124057
3.23673e-05
5.4225e-07
-0.0001834
1.78668e-05
3.86802e-07
-0.00020968
8.86518e-06
2.22526e-07
2.91269e-06
8.01716e-08
0.00221766
-4.36588e-05
3.98899e-07
0.00221299
-0.000159315
1.7183e-06
0.00196715
-0.000305134
2.98042e-06
0.000402676
-0.000529923
3.75029e-06
0.000395113
0.000402781
0.000395078
-7.45629e-07
0.000354597
-0.000225744
8.64301e-07
2.85198e-07
0.000339176
0.000380797
-0.000463573
6.18869e-07
-0.000312557
1.1318e-06
3.74727e-09
-2.05148e-08
-1.69206e-06
1.78931e-06
-2.67089e-08
5.92941e-09
-2.6932e-08
-2.64909e-06
-2.31548e-08
-2.44222e-05
1.72934e-05
5.53352e-08
-3.8684e-06
-1.04491e-07
-5.91847e-06
1.19252e-05
1.18043e-07
-0.000137251
1.96519e-05
4.84319e-07
1.63364e-05
1.69832e-05
1.63309e-05
1.69709e-05
-0.000191969
1.15595e-05
3.66173e-07
-0.000216141
5.9281e-06
2.15373e-07
2.00152e-06
8.08991e-08
0.00212951
-2.54909e-05
3.97616e-07
0.00208323
-9.30537e-05
1.89195e-06
0.00175706
-0.000181164
3.38669e-06
0.000320873
-0.000329529
4.14076e-06
0.000294234
0.000320794
0.000294093
-2.36834e-07
0.000262331
-0.000183001
7.45188e-07
0.000195007
-4.24906e-07
0.000254171
-0.000277921
4.59609e-07
-1.38665e-08
3.03295e-08
2.65776e-06
-2.87789e-08
-2.31826e-08
-3.97355e-06
3.38906e-08
-4.83101e-08
-2.11329e-05
3.49757e-08
4.89967e-08
-1.96067e-09
-2.12393e-08
2.89557e-08
1.01687e-07
-1.56785e-08
-1.26918e-07
4.07156e-08
-4.20084e-08
-2.11138e-05
4.82624e-08
3.26747e-08
-2.235e-08
-7.45223e-09
1.14642e-07
-2.22482e-10
-1.10776e-07
2.5526e-08
2.48062e-06
2.78925e-08
-4.50224e-08
-3.71284e-06
1.16594e-06
-3.72427e-09
-1.77661e-06
1.31448e-08
-7.36738e-08
-1.68955e-06
-8.88553e-06
4.37639e-06
1.0331e-07
-8.09077e-06
-0.000143633
8.15213e-06
4.64261e-07
1.83228e-05
1.8313e-05
1.83067e-05
1.82969e-05
-0.000197059
5.20616e-06
3.67153e-07
-0.00022035
2.79472e-06
2.18233e-07
9.73329e-07
8.52033e-08
0.00207752
2.35916e-09
3.96248e-07
0.00200028
4.69683e-09
2.00255e-06
0.00161244
4.07367e-09
3.58488e-06
0.000242865
2.43356e-09
4.1899e-06
0.000234687
0.000242711
0.000234519
-2.2001e-07
0.000126851
0.000138019
-6.81926e-05
7.0325e-07
1.13432e-06
-1.42224e-08
-2.6197e-09
-1.69467e-06
-1.60206e-08
-5.43621e-09
-2.11956e-05
3.2393e-08
4.4829e-08
-6.32287e-09
-2.5964e-08
3.35678e-08
1.06292e-07
-8.95338e-09
-1.16601e-07
4.06333e-08
7.65933e-10
-2.13337e-05
8.39378e-08
4.10535e-09
-2.13017e-05
3.86137e-08
8.44486e-09
-2.11121e-05
5.26204e-08
2.35204e-09
-1.73212e-08
1.0644e-07
3.28345e-08
-1.19974e-07
-1.373e-08
3.01616e-06
-1.68205e-08
1.83764e-08
2.01931e-08
-4.54381e-06
-2.47994e-08
-1.60132e-06
-8.91913e-06
5.25887e-07
5.09583e-08
-0.000145325
-2.73986e-09
4.35554e-07
1.85505e-05
1.84599e-05
1.8532e-05
1.84422e-05
-0.000199018
-1.60414e-09
3.65612e-07
-0.000222257
-7.5159e-10
2.21622e-07
-1.00583e-10
8.98419e-08
0.00207752
2.54944e-05
3.96211e-07
0.00200028
9.30627e-05
2.00212e-06
0.00161244
0.000181172
3.58416e-06
0.00023471
0.000329536
4.18966e-06
0.000242843
0.000234543
0.000242688
-3.78275e-07
8.17835e-09
0.000121272
6.8197e-05
7.5796e-07
1.77739e-06
2.26736e-08
-2.69731e-08
8.03182e-10
-2.68147e-06
-1.58018e-08
3.44632e-08
-2.11342e-05
4.52281e-08
3.06035e-08
-2.59956e-08
-8.95768e-09
1.08162e-07
-7.32337e-09
-1.172e-07
4.22516e-08
4.97614e-08
-2.12742e-05
8.34817e-08
4.45642e-08
-2.12362e-05
5.28669e-08
1.06807e-07
-2.10433e-05
3.93462e-08
-1.74539e-08
2.01316e-09
3.31008e-08
-1.21279e-07
-1.38872e-08
2.4484e-06
-1.20398e-09
2.9889e-08
-1.93344e-08
-3.65188e-06
-2.55979e-08
1.14893e-09
-8.84588e-06
-5.28908e-07
4.61009e-08
-0.000145325
-8.15858e-06
4.35329e-07
1.84599e-05
1.85509e-05
1.84421e-05
1.8533e-05
-0.000199018
-5.20933e-06
3.65437e-07
-0.000222257
-2.79602e-06
2.21538e-07
-9.73642e-07
8.98484e-08
0.00212952
4.36594e-05
3.97437e-07
0.00208324
0.000159317
1.89122e-06
0.00175709
0.000305135
3.38553e-06
0.000294259
0.000529923
4.14047e-06
0.000320865
0.00029412
0.000320785
-3.17485e-07
-0.00012684
0.000191339
0.000183008
7.87943e-07
2.07605e-08
2.4864e-06
-4.16259e-08
2.87414e-08
-3.724e-06
3.77169e-08
3.63353e-08
-2.11631e-05
4.94451e-08
-7.26564e-10
-2.1256e-08
1.02447e-07
2.71814e-08
-1.24612e-07
-1.85509e-08
1.12315e-07
4.78134e-08
-2.11111e-05
3.40149e-08
-2.35092e-08
-6.61782e-09
4.0665e-08
-1.07852e-07
-6.76855e-10
2.55448e-06
5.03491e-08
4.48568e-08
-3.71225e-06
2.26861e-06
1.67625e-08
2.59604e-10
-3.42215e-06
-2.6242e-08
-4.04459e-08
1.60422e-06
-8.88286e-06
-4.38114e-06
6.6669e-08
-0.000143631
-1.96595e-05
4.64154e-07
1.83088e-05
1.83269e-05
1.8293e-05
1.83106e-05
-0.00019706
-1.15607e-05
3.67046e-07
-0.000220349
-5.93016e-06
2.1794e-07
-2.00167e-06
8.4714e-08
0.00221767
5.23813e-05
3.98947e-07
0.002213
0.000191205
1.71813e-06
0.00196716
0.000357979
2.97971e-06
0.000395138
0.000589314
3.74969e-06
0.000402656
0.000395103
0.000402762
-0.000194999
-4.31997e-07
0.000319451
0.00022575
8.18354e-07
-4.41495e-07
-0.000254169
0.000463578
7.1181e-07
-0.000250506
1.18681e-06
1.3752e-09
-1.78214e-06
-1.12185e-08
3.02942e-06
-2.15761e-08
2.56221e-08
2.00003e-08
-4.56407e-06
2.44586e-06
-8.02695e-09
-1.26149e-08
2.71566e-08
-3.64793e-06
2.26312e-06
7.80126e-09
5.81211e-09
-3.41434e-06
-2.18787e-08
8.09658e-06
-4.8516e-07
-9.60724e-08
-7.60466e-06
-1.19293e-05
1.04583e-07
-0.000137244
-3.23634e-05
4.84166e-07
1.69767e-05
1.63349e-05
1.69637e-05
1.63281e-05
-0.000191965
-1.78655e-05
3.66445e-07
-0.000216139
-8.86471e-06
2.14886e-07
-2.91264e-06
8.09633e-08
0.00232125
5.28953e-05
3.92804e-07
0.00235438
0.000193942
1.5341e-06
0.00216851
0.000360836
2.60809e-06
0.00186494
0.000591846
3.3214e-06
0.000363614
0.000944797
3.82816e-06
0.00041146
0.000363422
0.000411512
-0.000229597
-0.000268869
-0.000229818
-0.000269015
1.49775e-08
-0.000339175
0.000290555
0.000365737
5.61045e-07
-3.34e-08
2.4424e-05
1.43453e-05
-5.12009e-05
1.01086e-07
-4.38758e-05
-7.1051e-05
6.9225e-07
-7.91166e-06
-1.17371e-05
-7.91745e-06
-1.17455e-05
1.4637e-05
1.00131e-05
1.46379e-05
1.00281e-05
-0.000124053
-3.89898e-05
5.42328e-07
-0.000183397
-2.1431e-05
3.86647e-07
-0.000209678
-1.06625e-05
2.22654e-07
-3.47359e-06
8.02029e-08
0.00242438
4.72011e-05
3.81738e-07
0.00249062
0.000172389
1.38224e-06
0.00236341
0.000314301
2.33916e-06
0.00216555
0.000494816
3.16073e-06
0.00203011
0.000713394
3.83136e-06
0.00052314
0.000936827
3.87865e-06
-0.000322538
-0.000378792
-0.000322711
-0.000378453
0.000520504
0.000522631
0.000520596
1.76972e-07
-0.000536884
0.000688002
0.000311236
6.45412e-07
-2.34238e-07
-0.000419385
0.000395714
3.39507e-07
-2.20844e-07
-8.80396e-05
0.00011243
-4.00204e-05
2.45778e-07
0.000101719
-0.000112853
1.10712e-06
3.64728e-05
2.8287e-05
3.64293e-05
2.83078e-05
-6.39823e-05
-6.38956e-05
-6.39303e-05
-6.39093e-05
-1.64552e-05
-6.7545e-05
8.49289e-07
-0.00010831
-3.90479e-05
6.23018e-07
-0.000173034
-2.19907e-05
4.21949e-07
-0.00020183
-1.10692e-05
2.38692e-07
-3.60774e-06
8.31437e-08
0.0025154
3.80629e-05
3.63809e-07
0.00260241
0.000138192
1.25601e-06
0.00250529
0.000247147
2.09851e-06
0.00234183
0.000374493
2.85366e-06
0.00219501
0.000508723
3.46959e-06
0.00213449
0.000613287
3.71458e-06
0.000517824
0.000618785
3.55674e-06
-0.000241961
-0.000198058
-0.000242122
-0.000198016
0.000492558
0.000517931
0.0004929
-0.000217032
-1.35004e-07
0.000497891
0.000192361
5.78697e-07
-5.68302e-07
-0.00037091
0.000638495
0.00017498
7.64236e-07
-0.000493039
-3.76229e-07
-0.000477002
0.000394208
4.92198e-05
5.12098e-07
-3.23418e-07
-0.000346951
0.000312583
6.73648e-06
4.66352e-07
-3.453e-07
-0.000302167
0.000317995
-4.38754e-05
4.85426e-07
6.48926e-05
-0.000195424
-2.43663e-07
0.000157593
-4.98311e-05
3.69493e-07
0.00031316
-0.000106447
1.50667e-06
3.25272e-05
3.55109e-05
3.25129e-05
3.55428e-05
-0.000126847
-0.000123403
-0.000126891
-0.000123479
0.000140463
-8.08744e-05
1.21889e-06
7.80041e-06
-5.34724e-05
9.31867e-07
-9.29082e-05
-3.33532e-05
6.83803e-07
-0.000162483
-1.96169e-05
4.59927e-07
-0.000193688
-1.00987e-05
2.58907e-07
-3.31727e-06
8.81502e-08
0.00258823
2.78971e-05
3.47408e-07
0.00268504
0.000100973
1.15649e-06
0.00259821
0.000178148
1.90417e-06
0.00243752
0.000262345
2.57206e-06
0.0022658
0.00034357
3.09454e-06
0.00211223
0.000401485
3.35262e-06
0.00195471
0.000413459
3.33029e-06
0.00182689
0.000387178
3.21417e-06
-0.00015301
-0.000151231
-0.000153189
-0.000151329
0.00166558
0.000291774
3.1552e-06
-0.000129182
-9.98176e-05
-0.000129346
-9.98271e-05
0.00139144
0.000147596
3.03432e-06
-5.26626e-05