/*--------------------------------*- C++ -*----------------------------------*\
  =========                 |
  \\      /  F ield         | OpenFOAM: The Open Source CFD Toolbox
   \\    /   O peration     | Website:  https://openfoam.org
    \\  /    A nd           | Version:  11
     \\/     M anipulation  |
\*---------------------------------------------------------------------------*/
FoamFile
{
    format      ascii;
    class       volScalarField;
    location    "0.0002";
    object      rho;
}
// * * * * * * * * * * * * * * * * * * * * * * * * * * * * * * * * * * * * * //

dimensions      [1 -3 0 0 0 0 0];

internalField   nonuniform List<scalar> 
21740
(
1.33844
1.35198
1.36587
1.36256
1.35244
1.33934
1.32447
1.30882
1.29327
1.27854
1.26522
1.25367
1.24406
1.23634
1.23028
1.2255
1.22152
1.21767
1.21297
1.20505
1.3387
1.35257
1.36665
1.36353
1.35357
1.34057
1.32569
1.30991
1.2941
1.27906
1.26543
1.25365
1.2439
1.23612
1.23006
1.22531
1.22138
1.21757
1.21292
1.20503
1.33925
1.35376
1.36823
1.36551
1.35589
1.3431
1.32824
1.31219
1.29581
1.28006
1.26577
1.2535
1.24348
1.23561
1.22958
1.22491
1.22108
1.21737
1.2128
1.20499
1.34008
1.35558
1.37062
1.36853
1.35949
1.34711
1.33232
1.31587
1.29849
1.28144
1.26599
1.25294
1.24256
1.23463
1.22874
1.22427
1.22061
1.21706
1.21263
1.20494
1.3412
1.35799
1.37382
1.37262
1.36449
1.35284
1.33832
1.32398
1.30607
1.28736
1.2698
1.25499
1.24355
1.2329
1.22744
1.22332
1.21997
1.21665
1.21241
1.20487
1.34257
1.36091
1.37771
1.37771
1.37095
1.36062
1.34786
1.33119
1.31205
1.24054
1.23259
1.22554
1.22206
1.21916
1.21617
1.21216
1.2048
1.34408
1.36412
1.38202
1.38351
1.37883
1.37018
1.35808
1.22458
1.22056
1.21826
1.21565
1.21189
1.20472
1.34557
1.36727
1.38624
1.38933
1.3853
1.38086
1.17952
1.17952
1.2217
1.21987
1.21741
1.21517
1.21165
1.20465
1.34681
1.36986
1.38977
1.39433
1.3921
1.39015
1.17952
1.17952
1.17952
1.17952
1.17952
1.21844
1.21679
1.21482
1.21148
1.2046
1.34752
1.37134
1.39177
1.39716
1.39688
1.17952
1.17952
1.17952
1.17952
1.17952
1.17952
1.21749
1.21643
1.21462
1.21138
1.20458
1.34752
1.37134
1.39177
1.39716
1.39783
1.17952
1.17952
1.17952
1.17952
1.17952
1.17952
1.21727
1.21643
1.21462
1.21138
1.20458
1.34681
1.36986
1.38976
1.39433
1.39492
1.17952
1.17952
1.17952
1.17952
1.17952
1.21788
1.21679
1.21482
1.21148
1.2046
1.34557
1.36727
1.38624
1.38932
1.38878
1.38565
1.17952
1.17952
1.17952
1.17952
1.21911
1.21741
1.21517
1.21165
1.20465
1.34408
1.36412
1.38202
1.38351
1.37883
1.37533
1.22303
1.22056
1.21826
1.21565
1.21189
1.20472
1.34257
1.36091
1.37771
1.37771
1.37095
1.36062
1.35246
1.33691
1.23086
1.22554
1.22206
1.21916
1.21617
1.21216
1.2048
1.3412
1.35799
1.37382
1.37262
1.36449
1.35284
1.33832
1.32697
1.30791
1.28844
1.26955
1.25418
1.24229
1.2329
1.22744
1.22332
1.21997
1.21665
1.21241
1.20487
1.34008
1.35558
1.37062
1.36853
1.35949
1.34711
1.33232
1.31587
1.2985
1.28144
1.26599
1.25294
1.24256
1.23463
1.22874
1.22427
1.22061
1.21706
1.21263
1.20494
1.33925
1.35377
1.36823
1.36551
1.35589
1.3431
1.32824
1.31219
1.29581
1.28006
1.26577
1.2535
1.24348
1.23561
1.22958
1.22491
1.22108
1.21737
1.2128
1.20499
1.3387
1.35257
1.36665
1.36353
1.35357
1.34057
1.32569
1.30991
1.2941
1.27906
1.26543
1.25365
1.2439
1.23612
1.23006
1.22531
1.22138
1.21757
1.21292
1.20503
1.33844
1.35198
1.36587
1.36256
1.35244
1.33934
1.32447
1.30882
1.29327
1.27855
1.26522
1.25367
1.24406
1.23634
1.23028
1.2255
1.22152
1.21767
1.21297
1.20505
1.33844
1.35198
1.36586
1.36256
1.35243
1.33933
1.32446
1.30881
1.29326
1.27853
1.26521
1.25366
1.24405
1.23633
1.23027
1.22549
1.22152
1.21766
1.21297
1.20505
1.3387
1.35256
1.36665
1.36353
1.35356
1.34056
1.32568
1.3099
1.29409
1.27905
1.26542
1.25364
1.24389
1.23611
1.23005
1.22531
1.22137
1.21756
1.21292
1.20503
1.33924
1.35376
1.36822
1.3655
1.35588
1.34309
1.32823
1.31218
1.2958
1.28005
1.26576
1.25349
1.24347
1.2356
1.22957
1.22491
1.22107
1.21736
1.2128
1.20499
1.34008
1.35557
1.37062
1.36852
1.35948
1.3471
1.33231
1.31586
1.29848
1.28143
1.26598
1.25293
1.24256
1.23463
1.22874
1.22426
1.22061
1.21706
1.21263
1.20494
1.3412
1.35798
1.37381
1.37261
1.36447
1.35282
1.3383
1.32411
1.30609
1.28736
1.2698
1.25499
1.24355
1.2329
1.22744
1.22332
1.21996
1.21665
1.21241
1.20487
1.34256
1.3609
1.3777
1.3777
1.37093
1.36059
1.34802
1.33122
1.31209
1.24053
1.2326
1.22554
1.22206
1.21916
1.21617
1.21216
1.2048
1.34408
1.36412
1.38201
1.3835
1.37881
1.3704
1.35806
1.22458
1.22056
1.21826
1.21564
1.21189
1.20472
1.34557
1.36726
1.38623
1.38932
1.38568
1.38087
1.17958
1.17958
1.2217
1.21987
1.21741
1.21517
1.21165
1.20465
1.3468
1.36985
1.38976
1.39432
1.39234
1.39022
1.17958
1.17961
1.17961
1.17958
1.17958
1.21844
1.21679
1.21482
1.21148
1.2046
1.34751
1.37133
1.39176
1.39715
1.39705
1.17958
1.17961
1.17961
1.17961
1.17961
1.17958
1.21749
1.21643
1.21462
1.21138
1.20458
1.34751
1.37133
1.39176
1.39715
1.398
1.17958
1.17961
1.17961
1.17961
1.17961
1.17958
1.21727
1.21643
1.21462
1.21138
1.20458
1.3468
1.36985
1.38976
1.39432
1.39513
1.17958
1.17961
1.17961
1.17958
1.17958
1.21789
1.21679
1.21482
1.21148
1.2046
1.34557
1.36726
1.38623
1.38932
1.38911
1.38571
1.17958
1.17958
1.17958
1.17958
1.21911
1.21741
1.21517
1.21165
1.20465
1.34408
1.36412
1.38201
1.3835
1.37881
1.37547
1.22303
1.22056
1.21826
1.21564
1.21189
1.20472
1.34256
1.3609
1.3777
1.3777
1.37093
1.36059
1.35255
1.33695
1.23086
1.22554
1.22206
1.21916
1.21617
1.21216
1.2048
1.3412
1.35798
1.37381
1.37261
1.36447
1.35282
1.3383
1.32706
1.30797
1.28844
1.26954
1.25414
1.24229
1.2329
1.22744
1.22332
1.21996
1.21665
1.21241
1.20487
1.34008
1.35557
1.37062
1.36852
1.35948
1.3471
1.33231
1.31586
1.29848
1.28143
1.26598
1.25293
1.24256
1.23463
1.22874
1.22426
1.22061
1.21706
1.21263
1.20494
1.33924
1.35376
1.36822
1.3655
1.35588
1.34309
1.32823
1.31218
1.2958
1.28005
1.26576
1.25349
1.24347
1.2356
1.22957
1.22491
1.22107
1.21736
1.2128
1.20499
1.3387
1.35256
1.36665
1.36353
1.35356
1.34056
1.32568
1.3099
1.29409
1.27905
1.26542
1.25364
1.24389
1.23611
1.23005
1.22531
1.22137
1.21756
1.21292
1.20503
1.33844
1.35198
1.36586
1.36256
1.35243
1.33933
1.32446
1.30881
1.29326
1.27853
1.26521
1.25366
1.24405
1.23633
1.23027
1.2255
1.22152
1.21766
1.21297
1.20505
1.33843
1.35196
1.36585
1.36253
1.3524
1.3393
1.32443
1.30878
1.29323
1.27851
1.26519
1.25364
1.24403
1.23632
1.23026
1.22549
1.22151
1.21766
1.21297
1.20505
1.33869
1.35255
1.36663
1.36351
1.35354
1.34053
1.32565
1.30987
1.29406
1.27902
1.2654
1.25362
1.24387
1.2361
1.23004
1.2253
1.22136
1.21756
1.21291
1.20503
1.33924
1.35375
1.36821
1.36548
1.35586
1.34307
1.3282
1.31215
1.29577
1.28002
1.26574
1.25347
1.24345
1.23559
1.22956
1.2249
1.22107
1.21736
1.2128
1.20499
1.34007
1.35556
1.3706
1.3685
1.35946
1.34707
1.33228
1.31583
1.29845
1.28141
1.26596
1.25291
1.24254
1.23462
1.22873
1.22425
1.2206
1.21705
1.21263
1.20494
1.34119
1.35797
1.37379
1.37258
1.36444
1.35279
1.33827
1.32408
1.30606
1.28733
1.26978
1.25498
1.24353
1.23289
1.22743
1.22331
1.21996
1.21665
1.21241
1.20487
1.34256
1.36088
1.37768
1.37767
1.3709
1.36056
1.34799
1.33119
1.31206
1.24051
1.23259
1.22554
1.22205
1.21915
1.21616
1.21215
1.20479
1.34407
1.3641
1.38199
1.38347
1.37879
1.37038
1.35804
1.22457
1.22056
1.21825
1.21564
1.21189
1.20472
1.34556
1.36724
1.38621
1.38929
1.38565
1.38085
1.17973
1.17973
1.22169
1.21987
1.21741
1.21517
1.21165
1.20465
1.3468
1.36983
1.38974
1.39429
1.39232
1.39019
1.17973
1.17978
1.17978
1.17973
1.17973
1.21844
1.21678
1.21482
1.21147
1.2046
1.34751
1.37131
1.39174
1.39712
1.39703
1.17973
1.17978
1.17978
1.17978
1.17978
1.17973
1.21748
1.21643
1.21462
1.21138
1.20458
1.34751
1.37131
1.39174
1.39712
1.39797
1.17973
1.17978
1.17978
1.17978
1.17978
1.17973
1.21727
1.21643
1.21462
1.21138
1.20458
1.3468
1.36983
1.38974
1.39429
1.39511
1.17973
1.17978
1.17978
1.17973
1.17973
1.21788
1.21678
1.21482
1.21147
1.2046
1.34556
1.36724
1.38621
1.38929
1.38908
1.38568
1.17973
1.17973
1.17973
1.17973
1.21911
1.21741
1.21517
1.21165
1.20465
1.34407
1.3641
1.38199
1.38347
1.37879
1.37545
1.22302
1.22056
1.21825
1.21564
1.21189
1.20472
1.34256
1.36088
1.37768
1.37767
1.3709
1.36056
1.35253
1.33692
1.23085
1.22554
1.22205
1.21915
1.21616
1.21215
1.20479
1.34119
1.35797
1.37379
1.37258
1.36444
1.35279
1.33827
1.32703
1.30794
1.28841
1.26952
1.25412
1.24227
1.23289
1.22743
1.22331
1.21996
1.21665
1.21241
1.20487
1.34007
1.35556
1.3706
1.3685
1.35946
1.34707
1.33228
1.31583
1.29846
1.28141
1.26596
1.25291
1.24254
1.23462
1.22873
1.22425
1.2206
1.21705
1.21263
1.20494
1.33924
1.35375
1.36821
1.36548
1.35586
1.34307
1.3282
1.31215
1.29577
1.28002
1.26574
1.25347
1.24345
1.23559
1.22956
1.2249
1.22107
1.21736
1.2128
1.20499
1.33869
1.35255
1.36663
1.36351
1.35354
1.34053
1.32565
1.30987
1.29406
1.27902
1.2654
1.25362
1.24387
1.2361
1.23004
1.2253
1.22136
1.21756
1.21291
1.20503
1.33843
1.35196
1.36585
1.36253
1.3524
1.3393
1.32443
1.30878
1.29323
1.27851
1.26519
1.25364
1.24403
1.23632
1.23026
1.22549
1.22151
1.21766
1.21297
1.20505
1.33842
1.35194
1.36582
1.3625
1.35236
1.33926
1.32438
1.30874
1.29319
1.27847
1.26515
1.25361
1.244
1.23629
1.23024
1.22547
1.2215
1.21765
1.21297
1.20505
1.33869
1.35253
1.3666
1.36347
1.3535
1.34049
1.32561
1.30983
1.29402
1.27898
1.26536
1.25359
1.24384
1.23608
1.23002
1.22528
1.22135
1.21755
1.21291
1.20503
1.33923
1.35372
1.36818
1.36544
1.35582
1.34302
1.32815
1.3121
1.29573
1.27998
1.2657
1.25344
1.24343
1.23557
1.22954
1.22489
1.22106
1.21735
1.2128
1.20499
1.34006
1.35554
1.37057
1.36846
1.35941
1.34702
1.33223
1.31579
1.29841
1.28137
1.26592
1.25288
1.24251
1.2346
1.22871
1.22424
1.22059
1.21705
1.21263
1.20494
1.34118
1.35794
1.37376
1.37254
1.3644
1.35274
1.33822
1.32404
1.30602
1.28729
1.26974
1.25495
1.24351
1.23287
1.22742
1.2233
1.21995
1.21664
1.21241
1.20487
1.34255
1.36086
1.37765
1.37764
1.37086
1.36051
1.34795
1.33115
1.31202
1.24049
1.23257
1.22552
1.22204
1.21915
1.21616
1.21215
1.20479
1.34406
1.36408
1.38196
1.38343
1.37874
1.37033
1.358
1.22456
1.22055
1.21825
1.21564
1.21189
1.20472
1.34555
1.36723
1.38618
1.38925
1.38561
1.38081
1.17996
1.17996
1.22168
1.21986
1.21741
1.21517
1.21165
1.20465
1.34679
1.36982
1.38971
1.39425
1.39227
1.39014
1.17997
1.18004
1.18004
1.17996
1.17996
1.21844
1.21678
1.21482
1.21148
1.2046
1.3475
1.3713
1.39172
1.39708
1.39698
1.17997
1.18004
1.18004
1.18004
1.18004
1.17996
1.21748
1.21643
1.21463
1.21138
1.20458
1.3475
1.3713
1.39172
1.39708
1.39793
1.17997
1.18004
1.18004
1.18004
1.18004
1.17996
1.21727
1.21643
1.21463
1.21138
1.20458
1.34679
1.36982
1.38971
1.39425
1.39507
1.17997
1.18004
1.18004
1.17996
1.17996
1.21788
1.21678
1.21482
1.21148
1.2046
1.34555
1.36723
1.38618
1.38925
1.38904
1.38563
1.17996
1.17996
1.17996
1.17996
1.2191
1.21741
1.21517
1.21165
1.20465
1.34406
1.36408
1.38196
1.38343
1.37874
1.37541
1.22301
1.22055
1.21825
1.21564
1.21189
1.20472
1.34255
1.36086
1.37765
1.37764
1.37086
1.36051
1.35249
1.33687
1.23084
1.22552
1.22204
1.21915
1.21616
1.21215
1.20479
1.34118
1.35794
1.37376
1.37254
1.3644
1.35274
1.33822
1.32699
1.3079
1.28837
1.26948
1.25409
1.24225
1.23287
1.22742
1.2233
1.21995
1.21664
1.21241
1.20487
1.34007
1.35554
1.37057
1.36846
1.35941
1.34702
1.33223
1.31579
1.29841
1.28137
1.26592
1.25288
1.24252
1.2346
1.22871
1.22424
1.22059
1.21705
1.21263
1.20494
1.33923
1.35372
1.36818
1.36544
1.35582
1.34302
1.32815
1.3121
1.29573
1.27999
1.2657
1.25344
1.24343
1.23557
1.22954
1.22489
1.22106
1.21735
1.2128
1.20499
1.33869
1.35253
1.3666
1.36347
1.3535
1.34049
1.32561
1.30983
1.29402
1.27898
1.26536
1.25359
1.24384
1.23608
1.23002
1.22528
1.22135
1.21755
1.21291
1.20503
1.33842
1.35194
1.36582
1.3625
1.35236
1.33926
1.32438
1.30874
1.29319
1.27847
1.26515
1.25361
1.244
1.23629
1.23024
1.22547
1.2215
1.21765
1.21297
1.20505
1.33841
1.35191
1.36578
1.36245
1.35231
1.3392
1.32432
1.30868
1.29313
1.27841
1.2651
1.25357
1.24397
1.23626
1.23021
1.22545
1.22148
1.21764
1.21296
1.20504
1.33867
1.3525
1.36656
1.36342
1.35344
1.34042
1.32554
1.30976
1.29396
1.27893
1.26531
1.25355
1.24381
1.23605
1.23
1.22526
1.22134
1.21754
1.2129
1.20503
1.33922
1.3537
1.36814
1.36539
1.35576
1.34296
1.32808
1.31204
1.29567
1.27993
1.26565
1.2534
1.24339
1.23554
1.22952
1.22487
1.22104
1.21734
1.21279
1.20499
1.34005
1.35551
1.37053
1.36841
1.35935
1.34695
1.33216
1.31572
1.29835
1.28131
1.26587
1.25284
1.24248
1.23457
1.2287
1.22423
1.22058
1.21704
1.21262
1.20494
1.34117
1.35792
1.37372
1.37249
1.36433
1.35267
1.33814
1.32397
1.30596
1.28723
1.26969
1.2549
1.24347
1.23285
1.2274
1.22329
1.21994
1.21664
1.2124
1.20487
1.34254
1.36083
1.37762
1.37759
1.3708
1.36045
1.34788
1.33108
1.31196
1.24045
1.23254
1.22551
1.22203
1.21914
1.21616
1.21215
1.20479
1.34405
1.36405
1.38193
1.38339
1.37869
1.37027
1.35794
1.22454
1.22055
1.21825
1.21564
1.21189
1.20472
1.34555
1.36721
1.38616
1.38921
1.38555
1.38075
1.1803
1.18029
1.22167
1.21985
1.21741
1.21517
1.21165
1.20465
1.34679
1.36982
1.38971
1.39422
1.39221
1.39008
1.1803
1.1804
1.1804
1.1803
1.18029
1.21843
1.21678
1.21482
1.21148
1.20461
1.3475
1.37131
1.39172
1.39705
1.39693
1.1803
1.1804
1.18041
1.18041
1.1804
1.18029
1.21747
1.21643
1.21463
1.21139
1.20458
1.3475
1.37131
1.39172
1.39705
1.39788
1.1803
1.1804
1.18041
1.18041
1.1804
1.18029
1.21726
1.21643
1.21463
1.21139
1.20458
1.34679
1.36982
1.38971
1.39422
1.39501
1.1803
1.1804
1.1804
1.1803
1.18029
1.21787
1.21678
1.21482
1.21148
1.20461
1.34555
1.36721
1.38616
1.38921
1.38898
1.38557
1.1803
1.1803
1.18029
1.18029
1.2191
1.21741
1.21517
1.21165
1.20465
1.34405
1.36405
1.38193
1.38339
1.37869
1.37534
1.223
1.22055
1.21825
1.21564
1.21189
1.20472
1.34254
1.36083
1.37762
1.37759
1.3708
1.36045
1.35242
1.3368
1.23081
1.22551
1.22203
1.21914
1.21616
1.21215
1.20479
1.34117
1.35792
1.37372
1.37249
1.36434
1.35267
1.33814
1.32692
1.30784
1.28831
1.26943
1.25405
1.24221
1.23285
1.2274
1.22329
1.21994
1.21664
1.2124
1.20487
1.34005
1.35551
1.37053
1.36841
1.35935
1.34695
1.33216
1.31572
1.29835
1.28131
1.26587
1.25284
1.24248
1.23457
1.2287
1.22423
1.22058
1.21704
1.21262
1.20494
1.33922
1.3537
1.36814
1.36539
1.35576
1.34296
1.32808
1.31204
1.29567
1.27993
1.26565
1.2534
1.24339
1.23554
1.22952
1.22487
1.22104
1.21734
1.21279
1.20499
1.33867
1.3525
1.36656
1.36342
1.35344
1.34042
1.32554
1.30976
1.29396
1.27893
1.26531
1.25355
1.24381
1.23605
1.23
1.22526
1.22134
1.21754
1.2129
1.20503
1.33841
1.35191
1.36578
1.36245
1.35231
1.3392
1.32432
1.30868
1.29313
1.27841
1.2651
1.25357
1.24397
1.23626
1.23021
1.22545
1.22148
1.21764
1.21296
1.20504
1.3384
1.35188
1.36573
1.36239
1.35224
1.33912
1.32424
1.30859
1.29305
1.27834
1.26504
1.25351
1.24392
1.23622
1.23018
1.22542
1.22146
1.21763
1.21295
1.20504
1.33866
1.35246
1.36651
1.36336
1.35337
1.34034
1.32545
1.30968
1.29388
1.27886
1.26525
1.25349
1.24376
1.23601
1.22997
1.22524
1.22132
1.21753
1.2129
1.20502
1.3392
1.35366
1.36808
1.36532
1.35568
1.34286
1.32799
1.31194
1.29559
1.27986
1.2656
1.25335
1.24336
1.23551
1.2295
1.22485
1.22103
1.21733
1.21278
1.20499
1.34004
1.35547
1.37047
1.36833
1.35926
1.34685
1.33205
1.31562
1.29827
1.28125
1.26582
1.2528
1.24246
1.23456
1.22868
1.22421
1.22057
1.21703
1.21262
1.20494
1.34116
1.35788
1.37366
1.37241
1.36423
1.35254
1.33801
1.32387
1.30587
1.28715
1.26962
1.25484
1.24344
1.23285
1.2274
1.22328
1.21994
1.21663
1.2124
1.20487
1.34252
1.3608
1.37757
1.37751
1.37069
1.36033
1.34776
1.33098
1.31186
1.2404
1.23252
1.22551
1.22203
1.21914
1.21615
1.21215
1.20479
1.34404
1.36402
1.38189
1.38332
1.37859
1.37018
1.35785
1.22452
1.22055
1.21825
1.21564
1.21189
1.20472
1.34554
1.36719
1.38615
1.38916
1.38547
1.38068
1.18073
1.18072
1.22166
1.21985
1.21742
1.21518
1.21166
1.20466
1.34678
1.36982
1.38972
1.39419
1.39214
1.39
1.18073
1.18087
1.18087
1.18073
1.18072
1.21842
1.2168
1.21484
1.21149
1.20461
1.3475
1.37132
1.39175
1.39704
1.39686
1.18073
1.18087
1.18089
1.18089
1.18086
1.18072
1.21747
1.21645
1.21465
1.21141
1.20459
1.3475
1.37132
1.39175
1.39704
1.39781
1.18073
1.18087
1.18089
1.18089
1.18086
1.18072
1.21726
1.21645
1.21465
1.21141
1.20459
1.34678
1.36982
1.38972
1.39419
1.39494
1.18074
1.18087
1.18087
1.18073
1.18072
1.21787
1.2168
1.21484
1.21149
1.20461
1.34554
1.36719
1.38615
1.38916
1.3889
1.3855
1.18073
1.18073
1.18073
1.18072
1.21909
1.21742
1.21518
1.21166
1.20466
1.34404
1.36402
1.38189
1.38332
1.37859
1.37527
1.22298
1.22055
1.21825
1.21564
1.21189
1.20472
1.34252
1.3608
1.37757
1.37751
1.37069
1.36033
1.35233
1.33671
1.23078
1.22551
1.22203
1.21914
1.21615
1.21215
1.20479
1.34116
1.35788
1.37366
1.37241
1.36423
1.35254
1.33801
1.32681
1.30775
1.28823
1.26935
1.25397
1.24217
1.23285
1.2274
1.22328
1.21994
1.21663
1.2124
1.20487
1.34004
1.35547
1.37047
1.36833
1.35926
1.34685
1.33205
1.31562
1.29827
1.28125
1.26582
1.2528
1.24246
1.23456
1.22868
1.22421
1.22057
1.21703
1.21262
1.20494
1.3392
1.35366
1.36808
1.36532
1.35568
1.34286
1.32799
1.31194
1.29559
1.27986
1.2656
1.25335
1.24336
1.23551
1.2295
1.22485
1.22103
1.21733
1.21278
1.20499
1.33866
1.35246
1.36651
1.36336
1.35337
1.34034
1.32545
1.30968
1.29388
1.27886
1.26525
1.25349
1.24376
1.23601
1.22997
1.22524
1.22132
1.21753
1.2129
1.20502
1.3384
1.35188
1.36573
1.36239
1.35224
1.33912
1.32424
1.30859
1.29305
1.27834
1.26504
1.25351
1.24392
1.23622
1.23018
1.22542
1.22146
1.21763
1.21295
1.20504
1.33838
1.35183
1.36567
1.36231
1.35214
1.33902
1.32413
1.30849
1.29295
1.27825
1.26496
1.25344
1.24386
1.23617
1.23014
1.22539
1.22144
1.21761
1.21294
1.20504
1.33864
1.35242
1.36644
1.36327
1.35327
1.34023
1.32534
1.30956
1.29377
1.27876
1.26517
1.25343
1.24371
1.23596
1.22993
1.22521
1.2213
1.21751
1.21289
1.20502
1.33918
1.35361
1.36801
1.36524
1.35557
1.34274
1.32786
1.31182
1.29548
1.27977
1.26553
1.2533
1.24331
1.23547
1.22946
1.22482
1.22101
1.21732
1.21277
1.20498
1.34002
1.35541
1.3704
1.36824
1.35913
1.3467
1.33189
1.31548
1.29818
1.28117
1.26577
1.25276
1.24244
1.23454
1.22866
1.22419
1.22055
1.21702
1.21261
1.20493
1.34113
1.35782
1.37359
1.3723
1.36407
1.35234
1.33779
1.32372
1.30574
1.28707
1.26956
1.25482
1.24344
1.23286
1.22741
1.22327
1.21992
1.21662
1.21239
1.20487
1.3425
1.36074
1.37749
1.37738
1.3705
1.36011
1.34747
1.33083
1.31193
1.24033
1.23255
1.22553
1.22204
1.21914
1.21615
1.21214
1.20479
1.34401
1.36397
1.38182
1.38319
1.37838
1.37003
1.35763
1.22451
1.22056
1.21825
1.21564
1.21189
1.20472
1.34552
1.36715
1.38608
1.38905
1.38532
1.38051
1.18122
1.18123
1.22164
1.21987
1.21743
1.21519
1.21166
1.20466
1.34676
1.36978
1.38967
1.3941
1.392
1.38974
1.18126
1.18147
1.18147
1.18127
1.18127
1.21844
1.21683
1.21485
1.2115
1.20462
1.34749
1.37129
1.39172
1.39697
1.39672
1.18123
1.18148
1.18151
1.18151
1.18146
1.18124
1.21745
1.21648
1.21467
1.21142
1.2046
1.34749
1.37129
1.39172
1.39697
1.39768
1.18124
1.18148
1.18151
1.18151
1.18146
1.18126
1.21724
1.21648
1.21467
1.21142
1.2046
1.34676
1.36978
1.38967
1.3941
1.39482
1.18128
1.18147
1.18147
1.18129
1.18123
1.21786
1.21683
1.21485
1.2115
1.20462
1.34552
1.36715
1.38608
1.38905
1.38876
1.38533
1.18129
1.18125
1.18127
1.18123
1.21911
1.21743
1.21519
1.21166
1.20466
1.34401
1.36397
1.38182
1.38319
1.37838
1.37519
1.22294
1.22056
1.21825
1.21564
1.21189
1.20472
1.3425
1.36074
1.37749
1.37738
1.3705
1.36011
1.35209
1.33651
1.2308
1.22553
1.22204
1.21914
1.21615
1.21214
1.20479
1.34113
1.35782
1.37359
1.3723
1.36407
1.35234
1.33779
1.3266
1.30779
1.28819
1.26924
1.25375
1.24217
1.23286
1.22741
1.22327
1.21992
1.21662
1.21239
1.20487
1.34002
1.35541
1.3704
1.36824
1.35913
1.3467
1.33189
1.31548
1.29818
1.28117
1.26577
1.25276
1.24244
1.23454
1.22866
1.22419
1.22055
1.21702
1.21261
1.20493
1.33918
1.35361
1.36801
1.36524
1.35557
1.34274
1.32786
1.31182
1.29548
1.27977
1.26553
1.2533
1.24331
1.23547
1.22946
1.22482
1.22101
1.21732
1.21277
1.20498
1.33864
1.35242
1.36644
1.36327
1.35327
1.34023
1.32534
1.30956
1.29377
1.27876
1.26517
1.25343
1.24371
1.23596
1.22993
1.22521
1.2213
1.21751
1.21289
1.20502
1.33838
1.35183
1.36567
1.36231
1.35214
1.33902
1.32413
1.30849
1.29295
1.27825
1.26496
1.25344
1.24386
1.23617
1.23014
1.22539
1.22144
1.21761
1.21294
1.20504
1.33835
1.35177
1.36558
1.36221
1.35203
1.33889
1.324
1.30836
1.29282
1.27813
1.26485
1.25335
1.24379
1.23611
1.23009
1.22535
1.22141
1.21759
1.21293
1.20503
1.33862
1.35236
1.36636
1.36317
1.35315
1.3401
1.3252
1.30943
1.29365
1.27865
1.26507
1.25334
1.24364
1.2359
1.22988
1.22517
1.22127
1.21749
1.21288
1.20502
1.33916
1.35354
1.36793
1.36513
1.35544
1.3426
1.32771
1.31168
1.29535
1.27966
1.26543
1.25321
1.24324
1.23542
1.22942
1.22479
1.22098
1.2173
1.21276
1.20498
1.33999
1.35535
1.37031
1.36812
1.359
1.34654
1.33173
1.31533
1.29805
1.28106
1.26567
1.25269
1.24238
1.23449
1.22862
1.22416
1.22053
1.217
1.2126
1.20493
1.3411
1.35775
1.37349
1.37218
1.36392
1.35217
1.33761
1.32356
1.3056
1.28697
1.26948
1.25478
1.24341
1.23283
1.22738
1.22325
1.2199
1.21661
1.21239
1.20487
1.34247
1.36067
1.37739
1.37725
1.37033
1.35993
1.34721
1.33067
1.31203
1.18131
1.18131
1.1813
1.24026
1.23256
1.22551
1.22202
1.21912
1.21614
1.21214
1.20479
1.34398
1.36389
1.38171
1.38305
1.3782
1.36989
1.35739
1.18131
1.18136
1.18143
1.18145
1.18139
1.18131
1.1813
1.22448
1.22055
1.21824
1.21563
1.21188
1.20472
1.34548
1.36706
1.38597
1.38891
1.38517
1.3803
1.18132
1.18142
1.18165
1.18181
1.18184
1.18172
1.18151
1.18133
1.2216
1.21987
1.21743
1.21518
1.21166
1.20466
1.34673
1.3697
1.38956
1.39395
1.39186
1.38942
1.18136
1.18165
1.18218
1.18226
1.18225
1.18216
1.1818
1.18146
1.1813
1.21845
1.21682
1.21485
1.2115
1.20462
1.34745
1.37121
1.39161
1.39683
1.39659
1.18132
1.18144
1.18181
1.18227
1.18233
1.18232
1.18225
1.18191
1.18161
1.18132
1.21744
1.21648
1.21467
1.21142
1.2046
1.34745
1.37121
1.39161
1.39683
1.39756
1.18132
1.18146
1.18185
1.18227
1.18233
1.18232
1.18225
1.18193
1.18164
1.18133
1.21722
1.21648
1.21467
1.21142
1.2046
1.34673
1.36969
1.38956
1.39395
1.39471
1.18132
1.1814
1.18174
1.18218
1.18226
1.18225
1.18216
1.18187
1.18154
1.1813
1.21786
1.21682
1.21485
1.2115
1.20462
1.34548
1.36706
1.38597
1.38891
1.38862
1.38512
1.18133
1.18153
1.18182
1.18193
1.18194
1.18187
1.18167
1.18138
1.1813
1.21911
1.21743
1.21518
1.21166
1.20466
1.34398
1.36389
1.38171
1.38305
1.3782
1.3751
1.18131
1.18134
1.18147
1.18162
1.18165
1.18154
1.18139
1.1813
1.22289
1.22055
1.21824
1.21563
1.21188
1.20472
1.34247
1.36066
1.37739
1.37725
1.37033
1.35992
1.35185
1.33634
1.18132
1.18133
1.18134
1.18131
1.18131
1.2308
1.22551
1.22202
1.21912
1.21614
1.21214
1.20479
1.3411
1.35775
1.37349
1.37218
1.36392
1.35217
1.33761
1.32638
1.30781
1.28813
1.26911
1.25353
1.24214
1.23283
1.22738
1.22325
1.2199
1.21661
1.21239
1.20487
1.33999
1.35535
1.37031
1.36812
1.359
1.34654
1.33173
1.31533
1.29805
1.28106
1.26567
1.25269
1.24238
1.23449
1.22862
1.22416
1.22053
1.217
1.2126
1.20493
1.33916
1.35354
1.36793
1.36513
1.35544
1.3426
1.32771
1.31168
1.29535
1.27966
1.26543
1.25321
1.24324
1.23542
1.22942
1.22479
1.22098
1.2173
1.21276
1.20498
1.33862
1.35236
1.36636
1.36317
1.35315
1.3401
1.3252
1.30943
1.29365
1.27865
1.26507
1.25334
1.24364
1.2359
1.22988
1.22517
1.22127
1.21749
1.21288
1.20502
1.33835
1.35177
1.36558
1.36221
1.35203
1.33889
1.324
1.30836
1.29282
1.27813
1.26485
1.25335
1.24379
1.23611
1.23009
1.22535
1.22141
1.21759
1.21293
1.20503
1.33832
1.3517
1.36548
1.36208
1.35188
1.33873
1.32384
1.3082
1.29267
1.27799
1.26473
1.25324
1.24369
1.23604
1.23003
1.22531
1.22138
1.21757
1.21292
1.20503
1.33858
1.35228
1.36625
1.36304
1.353
1.33995
1.32505
1.30927
1.2935
1.27851
1.26494
1.25323
1.24354
1.23583
1.22982
1.22513
1.22124
1.21747
1.21286
1.20501
1.33912
1.35346
1.36782
1.36499
1.3553
1.34245
1.32756
1.31153
1.2952
1.27951
1.26529
1.25309
1.24314
1.23533
1.22935
1.22474
1.22095
1.21728
1.21275
1.20498
1.33995
1.35526
1.37019
1.36798
1.35885
1.3464
1.33159
1.31519
1.29788
1.2809
1.26552
1.25255
1.24226
1.2344
1.22855
1.22411
1.22049
1.21698
1.21259
1.20493
1.34106
1.35765
1.37336
1.37204
1.36379
1.35206
1.33751
1.32342
1.30545
1.28681
1.26933
1.25463
1.24329
1.23271
1.22729
1.22319
1.21987
1.21659
1.21237
1.20486
1.34242
1.36056
1.37725
1.37711
1.37022
1.35983
1.34717
1.33052
1.31163
1.24019
1.23244
1.22542
1.22196
1.21909
1.21611
1.21213
1.20479
1.34393
1.36378
1.38156
1.38291
1.3781
1.36975
1.35731
1.22443
1.22049
1.21821
1.21561
1.21187
1.20471
1.34543
1.36694
1.38581
1.38874
1.38505
1.38018
1.18277
1.18285
1.22158
1.21982
1.21739
1.21516
1.21165
1.20465
1.34667
1.36956
1.38938
1.39377
1.39173
1.38942
1.18289
1.18331
1.1833
1.18293
1.18273
1.2184
1.21678
1.21482
1.21149
1.20461
1.34739
1.37106
1.39141
1.39663
1.39646
1.18278
1.18332
1.18337
1.18335
1.18329
1.18287
1.21743
1.21643
1.21464
1.2114
1.20459
1.34739
1.37106
1.39141
1.39663
1.39742
1.18287
1.18332
1.18337
1.18335
1.18329
1.18289
1.21721
1.21643
1.21464
1.2114
1.20459
1.34667
1.36956
1.38938
1.39377
1.39456
1.18296
1.18331
1.1833
1.18299
1.18286
1.21783
1.21678
1.21482
1.21149
1.20461
1.34543
1.36694
1.38581
1.38874
1.3885
1.385
1.18276
1.1829
1.18291
1.18287
1.21907
1.21739
1.21516
1.21165
1.20465
1.34393
1.36377
1.38156
1.38291
1.3781
1.37489
1.22288
1.22049
1.21821
1.21561
1.21187
1.20471
1.34242
1.36056
1.37725
1.37711
1.37022
1.35983
1.35178
1.3362
1.23069
1.22542
1.22196
1.21909
1.21611
1.21213
1.20479
1.34106
1.35765
1.37336
1.37204
1.36379
1.35206
1.33751
1.32629
1.3075
1.28792
1.26901
1.25357
1.24202
1.23271
1.22729
1.22319
1.21987
1.21659
1.21237
1.20486
1.33995
1.35526
1.37019
1.36798
1.35885
1.3464
1.33159
1.31519
1.29788
1.2809
1.26552
1.25255
1.24226
1.2344
1.22855
1.22411
1.22049
1.21698
1.21259
1.20493
1.33912
1.35346
1.36782
1.36499
1.3553
1.34245
1.32756
1.31153
1.2952
1.27951
1.26529
1.25309
1.24314
1.23533
1.22936
1.22474
1.22095
1.21728
1.21275
1.20498
1.33858
1.35228
1.36625
1.36304
1.353
1.33995
1.32505
1.30928
1.2935
1.27851
1.26494
1.25323
1.24354
1.23583
1.22982
1.22513
1.22124
1.21747
1.21286
1.20501
1.33832
1.3517
1.36548
1.36208
1.35188
1.33874
1.32384
1.3082
1.29267
1.27799
1.26473
1.25324
1.24369
1.23604
1.23003
1.22531
1.22138
1.21757
1.21292
1.20503
1.33828
1.35161
1.36536
1.36193
1.35171
1.33855
1.32365
1.30801
1.29249
1.27782
1.26457
1.25311
1.24358
1.23595
1.22996
1.22525
1.22134
1.21754
1.2129
1.20502
1.33854
1.35218
1.36612
1.36288
1.35282
1.33976
1.32485
1.30908
1.29331
1.27833
1.26479
1.25309
1.24343
1.23573
1.22975
1.22507
1.2212
1.21744
1.21285
1.20501
1.33908
1.35336
1.36768
1.36483
1.35511
1.34226
1.32737
1.31134
1.29501
1.27933
1.26512
1.25295
1.24302
1.23524
1.22928
1.22468
1.22091
1.21725
1.21274
1.20497
1.33991
1.35515
1.37004
1.36781
1.35867
1.34622
1.33141
1.315
1.29768
1.2807
1.26534
1.2524
1.24212
1.23429
1.22847
1.22405
1.22045
1.21695
1.21257
1.20492
1.34101
1.35753
1.3732
1.37185
1.36361
1.35189
1.33736
1.32325
1.30528
1.28662
1.26916
1.25446
1.24313
1.23259
1.2272
1.22313
1.21983
1.21656
1.21236
1.20486
1.34237
1.36042
1.37706
1.37691
1.37003
1.35964
1.3471
1.33034
1.31126
1.24012
1.23229
1.22533
1.2219
1.21904
1.21609
1.21211
1.20478
1.34387
1.36362
1.38135
1.38268
1.3779
1.36952
1.35717
1.22438
1.22043
1.21816
1.21558
1.21185
1.20471
1.34536
1.36676
1.38557
1.38849
1.38484
1.37999
1.18419
1.18418
1.22155
1.21976
1.21734
1.21513
1.21163
1.20464
1.34659
1.36936
1.3891
1.39348
1.3915
1.38932
1.18421
1.18461
1.18459
1.18419
1.18415
1.21836
1.21673
1.21479
1.21146
1.2046
1.3473
1.37085
1.39111
1.39632
1.39621
1.18421
1.18463
1.18464
1.18462
1.18457
1.18416
1.21741
1.21638
1.2146
1.21138
1.20458
1.3473
1.37085
1.39111
1.39632
1.39716
1.18422
1.18463
1.18464
1.18462
1.18457
1.18417
1.2172
1.21638
1.2146
1.21138
1.20458
1.34659
1.36936
1.3891
1.39348
1.39429
1.18424
1.18461
1.18459
1.18422
1.18415
1.2178
1.21673
1.21479
1.21146
1.2046
1.34536
1.36676
1.38557
1.38849
1.38827
1.38481
1.1842
1.1842
1.1842
1.18416
1.21901
1.21734
1.21513
1.21163
1.20464
1.34387
1.36362
1.38135
1.38268
1.37789
1.3746
1.22286
1.22043
1.21816
1.21558
1.21185
1.20471
1.34237
1.36042
1.37706
1.37691
1.37003
1.35964
1.35166
1.33606
1.23057
1.22533
1.2219
1.21904
1.21609
1.21211
1.20478
1.34101
1.35753
1.3732
1.37185
1.36361
1.35189
1.33736
1.32618
1.30715
1.2877
1.26889
1.25359
1.24187
1.23259
1.2272
1.22313
1.21983
1.21656
1.21236
1.20486
1.33991
1.35515
1.37004
1.36781
1.35867
1.34622
1.33141
1.315
1.29768
1.2807
1.26534
1.2524
1.24212
1.23429
1.22847
1.22405
1.22045
1.21695
1.21257
1.20492
1.33908
1.35336
1.36768
1.36483
1.35511
1.34226
1.32737
1.31134
1.29501
1.27933
1.26512
1.25295
1.24302
1.23524
1.22928
1.22468
1.22091
1.21725
1.21274
1.20497
1.33854
1.35218
1.36613
1.36289
1.35283
1.33976
1.32485
1.30909
1.29331
1.27833
1.26479
1.25309
1.24343
1.23573
1.22975
1.22507
1.2212
1.21744
1.21285
1.20501
1.33828
1.35161
1.36536
1.36193
1.35171
1.33855
1.32365
1.30801
1.29249
1.27782
1.26457
1.25311
1.24358
1.23595
1.22996
1.22525
1.22134
1.21754
1.2129
1.20502
1.33824
1.35149
1.3652
1.36174
1.35149
1.33832
1.32341
1.30778
1.29227
1.27762
1.26439
1.25295
1.24345
1.23584
1.22988
1.22519
1.22129
1.21751
1.21289
1.20502
1.3385
1.35207
1.36597
1.36269
1.3526
1.33952
1.32461
1.30885
1.29309
1.27813
1.2646
1.25293
1.24329
1.23563
1.22967
1.22501
1.22115
1.21741
1.21283
1.205
1.33903
1.35324
1.36751
1.36462
1.35488
1.34202
1.32712
1.31109
1.29478
1.27912
1.26494
1.25278
1.24289
1.23513
1.2292
1.22462
1.22086
1.21722
1.21272
1.20497
1.33985
1.35501
1.36986
1.36759
1.35842
1.34596
1.33115
1.31474
1.29743
1.28048
1.26515
1.25224
1.24199
1.23418
1.22839
1.22399
1.22041
1.21692
1.21256
1.20491
1.34095
1.35738
1.373
1.37161
1.36334
1.35162
1.33709
1.323
1.30505
1.28641
1.26898
1.25431
1.243
1.23248
1.22712
1.22307
1.21979
1.21653
1.21234
1.20485
1.34229
1.36025
1.37683
1.37665
1.36974
1.35934
1.34684
1.33008
1.31101
1.24001
1.2322
1.22526
1.22185
1.21901
1.21606
1.21209
1.20478
1.34379
1.36343
1.3811
1.38239
1.37758
1.36921
1.35688
1.22432
1.22039
1.21813
1.21556
1.21184
1.2047
1.34527
1.36655
1.38528
1.38816
1.38452
1.37967
1.18572
1.1857
1.22151
1.21972
1.21731
1.2151
1.21161
1.20464
1.34649
1.36912
1.38878
1.39314
1.39117
1.38901
1.18574
1.18615
1.18612
1.18568
1.18566
1.21833
1.2167
1.21476
1.21144
1.20459
1.3472
1.3706
1.39078
1.39595
1.39587
1.18576
1.18618
1.18617
1.18613
1.18608
1.18565