/*--------------------------------*- C++ -*----------------------------------*\
  =========                 |
  \\      /  F ield         | OpenFOAM: The Open Source CFD Toolbox
   \\    /   O peration     | Website:  https://openfoam.org
    \\  /    A nd           | Version:  11
     \\/     M anipulation  |
\*---------------------------------------------------------------------------*/
FoamFile
{
    format      ascii;
    class       volScalarField;
    location    "0.0002";
    object      T;
}
// * * * * * * * * * * * * * * * * * * * * * * * * * * * * * * * * * * * * * //

dimensions      [0 0 0 1 0 0 0];

internalField   nonuniform List<scalar> 
21740
(
317.195
311.843
310.049
308.617
307.31
306.111
305.046
304.133
303.371
302.755
302.275
301.923
301.69
301.569
301.555
301.648
301.852
302.178
302.662
303.62
317.196
311.863
310.078
308.653
307.352
306.155
305.091
304.173
303.403
302.777
302.288
301.929
301.692
301.568
301.554
301.647
301.852
302.178
302.662
303.62
317.199
311.903
310.14
308.731
307.442
306.252
305.187
304.259
303.47
302.821
302.31
301.936
301.692
301.566
301.552
301.646
301.851
302.178
302.662
303.62
317.203
311.967
310.239
308.858
307.591
306.416
305.354
304.402
303.578
302.883
302.333
301.937
301.685
301.559
301.547
301.643
301.85
302.177
302.662
303.619
317.208
312.055
310.38
309.049
307.824
306.674
305.626
304.798
303.899
303.104
302.467
302.009
301.719
301.542
301.539
301.64
301.849
302.178
302.662
303.619
317.214
312.169
310.571
309.321
308.175
307.091
306.159
305.096
304.299
301.665
301.543
301.533
301.641
301.852
302.18
302.664
303.619
317.221
312.302
310.804
309.683
308.687
307.818
307.023
301.529
301.655
301.862
302.186
302.667
303.619
317.227
312.437
311.052
310.073
309.38
308.596
300.029
300.029
301.573
301.651
301.877
302.193
302.67
303.619
317.23
312.551
311.272
310.45
310.01
309.587
300.029
300.029
300.029
300.029
300.029
301.695
301.892
302.201
302.673
303.619
317.232
312.618
311.406
310.694
310.439
300.029
300.029
300.029
300.029
300.029
300.029
301.746
301.906
302.206
302.675
303.619
317.232
312.618
311.406
310.694
310.553
300.029
300.029
300.029
300.029
300.029
300.029
301.76
301.906
302.206
302.675
303.619
317.23
312.551
311.272
310.45
310.276
300.029
300.029
300.029
300.029
300.029
301.722
301.892
302.201
302.673
303.619
317.227
312.437
311.052
310.073
309.757
309.139
300.029
300.029
300.029
300.029
301.674
301.877
302.193
302.67
303.619
317.221
312.302
310.804
309.683
308.687
308.3
301.547
301.655
301.862
302.186
302.667
303.619
317.214
312.169
310.571
309.321
308.175
307.091
306.442
305.638
301.528
301.533
301.641
301.852
302.18
302.664
303.619
317.208
312.055
310.38
309.049
307.824
306.674
305.626
305.021
303.941
303.148
302.46
301.991
301.696
301.542
301.539
301.64
301.849
302.178
302.662
303.619
317.203
311.967
310.239
308.858
307.591
306.416
305.354
304.402
303.578
302.883
302.333
301.937
301.685
301.559
301.547
301.643
301.85
302.177
302.662
303.619
317.199
311.903
310.14
308.731
307.441
306.252
305.187
304.259
303.47
302.821
302.31
301.936
301.692
301.566
301.552
301.646
301.851
302.178
302.662
303.62
317.196
311.863
310.078
308.653
307.352
306.155
305.091
304.173
303.403
302.777
302.288
301.929
301.692
301.568
301.554
301.647
301.852
302.178
302.662
303.62
317.195
311.843
310.049
308.617
307.31
306.111
305.046
304.133
303.371
302.755
302.275
301.923
301.69
301.569
301.555
301.648
301.852
302.178
302.662
303.62
317.195
311.843
310.048
308.616
307.31
306.11
305.046
304.132
303.371
302.755
302.275
301.923
301.69
301.569
301.555
301.648
301.852
302.178
302.662
303.62
317.196
311.862
310.078
308.653
307.352
306.155
305.091
304.173
303.403
302.777
302.288
301.929
301.691
301.568
301.554
301.647
301.852
302.178
302.662
303.62
317.199
311.903
310.139
308.731
307.441
306.252
305.187
304.259
303.47
302.82
302.31
301.936
301.692
301.566
301.552
301.645
301.851
302.178
302.662
303.62
317.203
311.966
310.238
308.858
307.591
306.415
305.353
304.402
303.577
302.883
302.333
301.937
301.685
301.559
301.547
301.643
301.85
302.177
302.662
303.619
317.208
312.055
310.38
309.049
307.824
306.673
305.624
304.771
303.897
303.104
302.467
302.009
301.719
301.542
301.539
301.64
301.849
302.178
302.662
303.619
317.215
312.169
310.57
309.32
308.174
307.088
306.117
305.096
304.302
301.665
301.543
301.532
301.64
301.852
302.18
302.664
303.619
317.222
312.302
310.804
309.682
308.685
307.769
307.023
301.528
301.654
301.862
302.186
302.667
303.619
317.227
312.437
311.052
310.071
309.302
308.592
300.03
300.03
301.573
301.65
301.876
302.193
302.67
303.619
317.231
312.551
311.271
310.447
309.959
309.585
300.03
300.031
300.031
300.03
300.03
301.694
301.892
302.2
302.673
303.619
317.232
312.618
311.405
310.692
310.407
300.03
300.031
300.031
300.031
300.031
300.03
301.746
301.905
302.206
302.675
303.619
317.232
312.618
311.405
310.692
310.524
300.03
300.031
300.031
300.031
300.031
300.03
301.76
301.905
302.206
302.675
303.619
317.231
312.551
311.271
310.447
310.234
300.03
300.031
300.031
300.03
300.03
301.722
301.892
302.2
302.673
303.619
317.227
312.437
311.052
310.071
309.689
309.137
300.03
300.03
300.03
300.03
301.673
301.876
302.193
302.67
303.619
317.222
312.302
310.804
309.682
308.685
308.264
301.547
301.654
301.862
302.186
302.667
303.619
317.215
312.169
310.57
309.32
308.174
307.088
306.413
305.636
301.528
301.532
301.64
301.852
302.18
302.664
303.619
317.208
312.055
310.38
309.049
307.824
306.673
305.624
304.995
303.944
303.148
302.459
301.99
301.697
301.542
301.539
301.64
301.849
302.178
302.662
303.619
317.203
311.966
310.238
308.858
307.591
306.415
305.353
304.402
303.577
302.883
302.333
301.937
301.685
301.559
301.547
301.643
301.85
302.177
302.662
303.619
317.199
311.903
310.139
308.731
307.441
306.252
305.187
304.259
303.47
302.82
302.31
301.936
301.692
301.566
301.552
301.645
301.851
302.178
302.662
303.62
317.196
311.862
310.078
308.653
307.352
306.155
305.091
304.173
303.403
302.777
302.288
301.929
301.691
301.568
301.554
301.647
301.852
302.178
302.662
303.62
317.195
311.843
310.048
308.616
307.31
306.11
305.046
304.132
303.371
302.755
302.275
301.923
301.69
301.569
301.555
301.648
301.852
302.178
302.662
303.62
317.195
311.842
310.048
308.616
307.31
306.11
305.046
304.132
303.37
302.754
302.275
301.923
301.69
301.568
301.555
301.648
301.852
302.178
302.662
303.62
317.196
311.862
310.078
308.653
307.351
306.155
305.09
304.172
303.402
302.776
302.287
301.928
301.691
301.568
301.554
301.647
301.852
302.178
302.662
303.62
317.199
311.902
310.139
308.73
307.441
306.251
305.187
304.258
303.47
302.82
302.31
301.936
301.692
301.566
301.551
301.645
301.851
302.178
302.662
303.62
317.203
311.966
310.238
308.858
307.591
306.415
305.353
304.401
303.577
302.882
302.333
301.937
301.685
301.559
301.546
301.642
301.85
302.177
302.662
303.619
317.208
312.055
310.38
309.048
307.823
306.672
305.624
304.77
303.896
303.104
302.467
302.009
301.719
301.542
301.538
301.639
301.849
302.178
302.662
303.619
317.215
312.169
310.57
309.32
308.173
307.088
306.116
305.096
304.302
301.665
301.543
301.532
301.64
301.852
302.18
302.664
303.619
317.222
312.301
310.803
309.681
308.684
307.769
307.023
301.528
301.654
301.862
302.186
302.667
303.619
317.227
312.436
311.051
310.07
309.301
308.592
300.032
300.032
301.573
301.65
301.876
302.193
302.67
303.619
317.23
312.55
311.27
310.447
309.959
309.585
300.032
300.033
300.033
300.032
300.032
301.694
301.891
302.2
302.673
303.619
317.232
312.617
311.404
310.691
310.406
300.032
300.033
300.033
300.033
300.033
300.032
301.746
301.905
302.205
302.675
303.619
317.232
312.617
311.404
310.691
310.523
300.032
300.033
300.033
300.033
300.033
300.032
301.76
301.905
302.205
302.675
303.619
317.23
312.55
311.27
310.447
310.234
300.032
300.033
300.033
300.032
300.032
301.722
301.892
302.2
302.673
303.619
317.227
312.436
311.051
310.07
309.688
309.137
300.032
300.032
300.032
300.032
301.673
301.876
302.193
302.67
303.619
317.222
312.301
310.803
309.681
308.684
308.263
301.547
301.654
301.862
302.186
302.667
303.619
317.215
312.169
310.57
309.32
308.173
307.088
306.413
305.636
301.528
301.532
301.64
301.852
302.18
302.664
303.619
317.208
312.055
310.38
309.048
307.823
306.672
305.624
304.994
303.944
303.147
302.459
301.99
301.696
301.542
301.538
301.639
301.849
302.178
302.662
303.619
317.203
311.966
310.238
308.858
307.591
306.415
305.353
304.401
303.577
302.882
302.333
301.937
301.685
301.559
301.546
301.642
301.85
302.177
302.662
303.619
317.199
311.902
310.139
308.73
307.441
306.251
305.187
304.258
303.47
302.82
302.31
301.936
301.692
301.566
301.551
301.645
301.851
302.178
302.662
303.62
317.196
311.862
310.078
308.653
307.351
306.155
305.09
304.172
303.402
302.776
302.287
301.928
301.691
301.568
301.554
301.647
301.852
302.178
302.662
303.62
317.195
311.842
310.048
308.616
307.31
306.11
305.046
304.132
303.37
302.754
302.275
301.923
301.69
301.568
301.555
301.648
301.852
302.178
302.662
303.62
317.195
311.842
310.048
308.616
307.309
306.11
305.045
304.131
303.37
302.754
302.274
301.922
301.689
301.568
301.554
301.648
301.852
302.178
302.662
303.62
317.196
311.862
310.077
308.652
307.351
306.154
305.09
304.172
303.402
302.776
302.287
301.928
301.691
301.568
301.553
301.647
301.852
302.178
302.662
303.62
317.199
311.902
310.139
308.73
307.44
306.251
305.186
304.258
303.469
302.82
302.309
301.936
301.691
301.566
301.551
301.645
301.851
302.177
302.662
303.62
317.203
311.966
310.237
308.857
307.59
306.414
305.352
304.401
303.577
302.882
302.332
301.937
301.685
301.559
301.546
301.642
301.849
302.177
302.662
303.619
317.208
312.054
310.379
309.047
307.822
306.671
305.623
304.77
303.896
303.103
302.467
302.008
301.719
301.542
301.538
301.639
301.849
302.178
302.662
303.619
317.214
312.168
310.569
309.318
308.172
307.087
306.115
305.096
304.302
301.664
301.542
301.532
301.64
301.851
302.18
302.664
303.619
317.221
312.3
310.802
309.68
308.683
307.768
307.022
301.528
301.654
301.861
302.185
302.666
303.619
317.227
312.435
311.049
310.069
309.3
308.592
300.036
300.036
301.573
301.65
301.876
302.193
302.67
303.619
317.229
312.548
311.268
310.445
309.958
309.584
300.036
300.037
300.037
300.036
300.036
301.694
301.891
302.2
302.672
303.619
317.231
312.615
311.402
310.69
310.406
300.036
300.037
300.037
300.037
300.037
300.036
301.746
301.905
302.205
302.674
303.618
317.231
312.615
311.402
310.69
310.523
300.036
300.037
300.037
300.037
300.037
300.036
301.76
301.905
302.205
302.674
303.618
317.229
312.548
311.268
310.445
310.233
300.036
300.037
300.037
300.036
300.036
301.722
301.891
302.2
302.672
303.619
317.227
312.435
311.049
310.069
309.687
309.136
300.036
300.036
300.036
300.036
301.673
301.876
302.193
302.67
303.619
317.221
312.3
310.802
309.68
308.683
308.262
301.547
301.654
301.861
302.185
302.666
303.619
317.214
312.168
310.569
309.318
308.172
307.087
306.413
305.635
301.528
301.532
301.64
301.851
302.18
302.664
303.619
317.208
312.054
310.379
309.047
307.822
306.671
305.623
304.994
303.943
303.147
302.459
301.989
301.696
301.542
301.538
301.639
301.849
302.178
302.662
303.619
317.203
311.966
310.237
308.857
307.59
306.414
305.352
304.401
303.577
302.882
302.332
301.937
301.685
301.559
301.546
301.642
301.849
302.177
302.662
303.619
317.199
311.902
310.139
308.73
307.44
306.251
305.186
304.258
303.469
302.82
302.309
301.936
301.691
301.566
301.551
301.645
301.851
302.177
302.662
303.62
317.196
311.862
310.077
308.652
307.351
306.154
305.09
304.172
303.402
302.776
302.287
301.928
301.691
301.568
301.553
301.647
301.852
302.178
302.662
303.62
317.195
311.842
310.048
308.616
307.309
306.11
305.045
304.131
303.37
302.754
302.274
301.922
301.689
301.568
301.554
301.648
301.852
302.178
302.662
303.62
317.195
311.842
310.047
308.615
307.308
306.109
305.044
304.131
303.369
302.753
302.274
301.922
301.689
301.568
301.554
301.647
301.852
302.178
302.662
303.62
317.196
311.861
310.076
308.651
307.35
306.153
305.088
304.17
303.401
302.775
302.286
301.927
301.69
301.567
301.553
301.646
301.851
302.178
302.662
303.62
317.199
311.902
310.138
308.729
307.439
306.249
305.185
304.257
303.468
302.819
302.309
301.935
301.691
301.565
301.551
301.645
301.85
302.177
302.662
303.62
317.203
311.965
310.236
308.855
307.587
306.411
305.35
304.4
303.576
302.881
302.332
301.936
301.684
301.558
301.546
301.642
301.849
302.177
302.662
303.619
317.208
312.053
310.377
309.045
307.818
306.669
305.621
304.769
303.895
303.103
302.466
302.008
301.718
301.541
301.538
301.638
301.848
302.177
302.662
303.619
317.214
312.166
310.567
309.315
308.168
307.085
306.115
305.095
304.301
301.664
301.542
301.532
301.639
301.851
302.179
302.663
303.619
317.22
312.298
310.799
309.677
308.681
307.767
307.022
301.528
301.653
301.86
302.185
302.666
303.619
317.224
312.432
311.045
310.065
309.299
308.591
300.041
300.041
301.573
301.65
301.875
302.191
302.669
303.619
317.226
312.544
311.263
310.442
309.957
309.584
300.041
300.042
300.042
300.041
300.041
301.694
301.89
302.198
302.671
303.618
317.227
312.61
311.396
310.687
310.405
300.041
300.042
300.043
300.043
300.042
300.041
301.746
301.904
302.203
302.673
303.617
317.227
312.61
311.396
310.687
310.523
300.041
300.042
300.043
300.043
300.042
300.041
301.76
301.904
302.203
302.673
303.617
317.226
312.544
311.263
310.442
310.233
300.041
300.042
300.042
300.041
300.041
301.722
301.89
302.198
302.671
303.618
317.224
312.432
311.045
310.065
309.686
309.135
300.041
300.041
300.041
300.041
301.673
301.875
302.191
302.669
303.619
317.22
312.298
310.799
309.677
308.681
308.262
301.546
301.653
301.86
302.185
302.666
303.619
317.214
312.166
310.567
309.315
308.168
307.085
306.412
305.635
301.528
301.532
301.639
301.851
302.179
302.663
303.619
317.208
312.053
310.377
309.045
307.818
306.669
305.621
304.993
303.943
303.147
302.458
301.988
301.696
301.541
301.538
301.638
301.848
302.177
302.662
303.619
317.203
311.965
310.236
308.855
307.587
306.411
305.35
304.4
303.576
302.881
302.332
301.936
301.684
301.558
301.546
301.642
301.849
302.177
302.662
303.619
317.199
311.902
310.138
308.729
307.439
306.249
305.185
304.256
303.468
302.819
302.309
301.935
301.691
301.565
301.551
301.645
301.85
302.177
302.662
303.62
317.196
311.861
310.076
308.651
307.35
306.153
305.088
304.17
303.401
302.775
302.286
301.927
301.69
301.567
301.553
301.646
301.851
302.178
302.662
303.62
317.195
311.842
310.047
308.615
307.308
306.109
305.044
304.13
303.369
302.753
302.274
301.922
301.689
301.568
301.554
301.647
301.852
302.178
302.662
303.62
317.195
311.841
310.046
308.614
307.307
306.107
305.043
304.129
303.368
302.752
302.273
301.921
301.688
301.567
301.553
301.647
301.851
302.178
302.662
303.62
317.196
311.86
310.076
308.65
307.348
306.152
305.087
304.169
303.4
302.774
302.285
301.927
301.69
301.567
301.553
301.646
301.851
302.177
302.661
303.62
317.199
311.901
310.137
308.727
307.437
306.247
305.182
304.254
303.467
302.818
302.308
301.935
301.69
301.565
301.55
301.644
301.85
302.177
302.661
303.619
317.202
311.964
310.235
308.853
307.584
306.407
305.346
304.397
303.575
302.881
302.332
301.936
301.684
301.558
301.545
301.641
301.848
302.177
302.661
303.619
317.207
312.052
310.375
309.041
307.812
306.661
305.616
304.766
303.894
303.102
302.465
302.007
301.718
301.541
301.537
301.637
301.847
302.177
302.662
303.619
317.212
312.164
310.563
309.309
308.16
307.077
306.111
305.096
304.302
301.663
301.542
301.531
301.637
301.849
302.178
302.663
303.619
317.218
312.294
310.793
309.669
308.672
307.763
307.022
301.528
301.651
301.858
302.183
302.665
303.618
317.221
312.426
311.038
310.055
309.293
308.589
300.047
300.047
301.573
301.649
301.872
302.189
302.667
303.617
317.221
312.537
311.254
310.431
309.955
309.583
300.048
300.05
300.05
300.047
300.047
301.693
301.886
302.195
302.669
303.616
317.221
312.602
311.386
310.676
310.405
300.047
300.05
300.05
300.05
300.05
300.047
301.746
301.899
302.199
302.67
303.616
317.221
312.602
311.386
310.676
310.522
300.048
300.05
300.05
300.05
300.05
300.047
301.76
301.899
302.199
302.67
303.616
317.221
312.537
311.254
310.431
310.23
300.048
300.05
300.05
300.048
300.047
301.722
301.886
302.195
302.669
303.616
317.221
312.426
311.038
310.055
309.682
309.134
300.048
300.047
300.047
300.047
301.672
301.872
302.189
302.667
303.617
317.218
312.294
310.793
309.669
308.672
308.258
301.546
301.651
301.858
302.183
302.665
303.618
317.212
312.164
310.563
309.309
308.16
307.077
306.413
305.636
301.527
301.531
301.637
301.849
302.178
302.663
303.619
317.207
312.052
310.375
309.041
307.812
306.661
305.616
304.992
303.943
303.146
302.457
301.987
301.695
301.541
301.537
301.637
301.847
302.177
302.662
303.619
317.202
311.964
310.235
308.853
307.584
306.407
305.346
304.397
303.575
302.881
302.332
301.936
301.684
301.558
301.545
301.641
301.848
302.177
302.661
303.619
317.199
311.901
310.137
308.727
307.437
306.246
305.182
304.254
303.467
302.818
302.308
301.935
301.69
301.565
301.55
301.644
301.85
302.177
302.661
303.619
317.196
311.86
310.076
308.65
307.348
306.152
305.087
304.169
303.4
302.774
302.285
301.927
301.69
301.567
301.553
301.646
301.851
302.177
302.661
303.62
317.195
311.841
310.046
308.614
307.307
306.107
305.043
304.129
303.368
302.752
302.273
301.921
301.688
301.567
301.553
301.647
301.851
302.178
302.662
303.62
317.195
311.84
310.045
308.612
307.306
306.106
305.041
304.127
303.366
302.75
302.271
301.92
301.687
301.566
301.553
301.646
301.851
302.177
302.661
303.62
317.196
311.86
310.074
308.649
307.347
306.149
305.085
304.167
303.398
302.773
302.284
301.926
301.689
301.566
301.552
301.645
301.85
302.177
302.661
303.62
317.199
311.9
310.135
308.725
307.434
306.243
305.179
304.252
303.465
302.817
302.308
301.934
301.69
301.564
301.549
301.643
301.849
302.177
302.661
303.619
317.202
311.963
310.233
308.85
307.579
306.401
305.34
304.393
303.572
302.881
302.332
301.937
301.685
301.557
301.544
301.64
301.848
302.176
302.661
303.619
317.206
312.05
310.372
309.036
307.805
306.648
305.605
304.761
303.89
303.101
302.465
302.007
301.719
301.541
301.535
301.636
301.846
302.176
302.661
303.619
317.211
312.161
310.559
309.302
308.146
307.055
306.094
305.108
304.325
301.663
301.542
301.529
301.635
301.847
302.177
302.662
303.618
317.215
312.29
310.788
309.659
308.655
307.746
307.039
301.527
301.647
301.855
302.181
302.664
303.618
317.217
312.42
311.029
310.038
309.279
308.583
300.055
300.055
301.573
301.644
301.867
302.186
302.666
303.616
317.215
312.529
311.243
310.409
309.936
309.585
300.056
300.059
300.059
300.056
300.056
301.691
301.879
302.191
302.667
303.615
317.214
312.593
311.375
310.653
310.393
300.055
300.059
300.06
300.06
300.059
300.055
301.745
301.891
302.194
302.668
303.614
317.214
312.593
311.375
310.653
310.512
300.056
300.059
300.06
300.06
300.059
300.056
301.759
301.891
302.194
302.668
303.614
317.215
312.529
311.243
310.409
310.212
300.056
300.059
300.059
300.057
300.055
301.72
301.879
302.191
302.667
303.615
317.217
312.42
311.029
310.038
309.667
309.133
300.056
300.056
300.056
300.055
301.667
301.867
302.186
302.666
303.616
317.215
312.29
310.788
309.659
308.655
308.237
301.546
301.647
301.855
302.181
302.664
303.618
317.211
312.161
310.559
309.302
308.146
307.055
306.418
305.651
301.528
301.529
301.635
301.847
302.177
302.662
303.618
317.206
312.05
310.372
309.036
307.805
306.648
305.605
304.982
303.957
303.148
302.454
301.982
301.696
301.541
301.535
301.636
301.846
302.176
302.661
303.619
317.202
311.963
310.233
308.85
307.579
306.401
305.34
304.393
303.573
302.881
302.332
301.937
301.685
301.557
301.544
301.64
301.848
302.176
302.661
303.619
317.199
311.9
310.135
308.725
307.434
306.243
305.179
304.252
303.465
302.817
302.308
301.934
301.69
301.564
301.549
301.643
301.849
302.177
302.661
303.619
317.196
311.86
310.074
308.649
307.347
306.149
305.085
304.167
303.398
302.773
302.284
301.926
301.689
301.566
301.552
301.645
301.85
302.177
302.661
303.62
317.195
311.84
310.045
308.612
307.306
306.106
305.041
304.127
303.366
302.75
302.271
301.92
301.687
301.566
301.553
301.646
301.851
302.177
302.661
303.62
317.195
311.839
310.044
308.611
307.304
306.104
305.039
304.125
303.364
302.749
302.27
301.918
301.686
301.565
301.552
301.646
301.85
302.177
302.661
303.62
317.196
311.859
310.073
308.647
307.345
306.147
305.082
304.165
303.396
302.771
302.283
301.924
301.688
301.565
301.551
301.645
301.85
302.177
302.661
303.62
317.198
311.899
310.134
308.723
307.432
306.241
305.176
304.249
303.462
302.815
302.306
301.933
301.689
301.563
301.549
301.643
301.849
302.176
302.661
303.619
317.202
311.961
310.231
308.848
307.576
306.398
305.336
304.39
303.57
302.879
302.331
301.936
301.684
301.557
301.543
301.639
301.847
302.176
302.661
303.619
317.206
312.048
310.37
309.033
307.801
306.642
305.599
304.755
303.885
303.1
302.464
302.007
301.719
301.54
301.535
301.635
301.845
302.175
302.661
303.619
317.21
312.159
310.556
309.299
308.14
307.045
306.077
305.121
304.348
300.056
300.056
300.056
301.662
301.542
301.527
301.633
301.846
302.176
302.662
303.618
317.214
312.288
310.784
309.654
308.648
307.726
307.057
300.056
300.057
300.058
300.058
300.057
300.056
300.056
301.526
301.645
301.854
302.18
302.663
303.617
317.215
312.417
311.025
310.031
309.264
308.58
300.056
300.058
300.062
300.065
300.065
300.063
300.059
300.056
301.573
301.641
301.865
302.185
302.665
303.616
317.214
312.525
311.239
310.4
309.913
309.587
300.057
300.062
300.071
300.072
300.072
300.071
300.064
300.058
300.056
301.688
301.876
302.189
302.666
303.614
317.212
312.589
311.37
310.644
310.376
300.056
300.058
300.065
300.073
300.074
300.073
300.072
300.066
300.061
300.056
301.745
301.888
302.193
302.667
303.613
317.212
312.589
311.37
310.644
310.497
300.056
300.059
300.066
300.073
300.074
300.073
300.072
300.067
300.062
300.056
301.759
301.888
302.193
302.667
303.613
317.214
312.525
311.239
310.4
310.19
300.056
300.057
300.064
300.071
300.072
300.072
300.071
300.066
300.06
300.056
301.719
301.876
302.189
302.666
303.614
317.215
312.417
311.025
310.031
309.649
309.134
300.056
300.06
300.065
300.067
300.067
300.066
300.062
300.057
300.056
301.664
301.865
302.185
302.665
303.616
317.214
312.288
310.784
309.654
308.648
308.215
300.056
300.056
300.059
300.061
300.062
300.06
300.057
300.056
301.546
301.645
301.854
302.18
302.663
303.617
317.21
312.159
310.556
309.299
308.14
307.045
306.422
305.667
300.056
300.056
300.056
300.056
300.056
301.528
301.527
301.633
301.846
302.176
302.662
303.618
317.206
312.048
310.37
309.033
307.801
306.642
305.599
304.971
303.972
303.15
302.451
301.977
301.696
301.54
301.535
301.635
301.845
302.175
302.661
303.619
317.202
311.961
310.231
308.848
307.576
306.398
305.336
304.39
303.57
302.879
302.331
301.936
301.684
301.557
301.543
301.639
301.847
302.176
302.661
303.619
317.198
311.899
310.134
308.723
307.432
306.241
305.176
304.249
303.462
302.815
302.306
301.933
301.689
301.563
301.549
301.643
301.849
302.176
302.661
303.619
317.196
311.859
310.073
308.647
307.345
306.147
305.082
304.165
303.396
302.771
302.283
301.924
301.688
301.565
301.551
301.645
301.85
302.177
302.661
303.62
317.195
311.839
310.044
308.611
307.304
306.104
305.039
304.125
303.364
302.749
302.27
301.918
301.686
301.565
301.552
301.646
301.85
302.177
302.661
303.62
317.195
311.838
310.042
308.609
307.301
306.101
305.036
304.123
303.362
302.746
302.268
301.916
301.684
301.564
301.551
301.645
301.85
302.176
302.661
303.619
317.196
311.857
310.071
308.645
307.342
306.145
305.08
304.162
303.393
302.768
302.28
301.922
301.686
301.564
301.55
301.644
301.849
302.176
302.661
303.619
317.198
311.897
310.132
308.721
307.43
306.239
305.175
304.247
303.46
302.812
302.303
301.931
301.687
301.562
301.548
301.642
301.848
302.176
302.661
303.619
317.202
311.96
310.229
308.846
307.576
306.398
305.337
304.389
303.568
302.876
302.327
301.932
301.681
301.555
301.542
301.639
301.847
302.175
302.661
303.619
317.206
312.047
310.369
309.033
307.802
306.648
305.604
304.755
303.885
303.097
302.461
302.004
301.716
301.538
301.534
301.635
301.845
302.175
302.661
303.619
317.211
312.159
310.556
309.3
308.146
307.06
306.085
305.103
304.32
301.66
301.54
301.528
301.635
301.847
302.177
302.662
303.618
317.216
312.288
310.785
309.657
308.657
307.735
307.034
301.526
301.648
301.855
302.181
302.664
303.618
317.218
312.419
311.027
310.041
309.267
308.579
300.081
300.082
301.572
301.644
301.868
302.187
302.666
303.617
317.217
312.528
311.242
310.414
309.921
309.58
300.083
300.09
300.09
300.084
300.08
301.69
301.882
302.192
302.667
303.615
317.217
312.593
311.374
310.658
310.378
300.081
300.091
300.091
300.091
300.09
300.083
301.745
301.894
302.196
302.668
303.614
317.217
312.593
311.374
310.658
310.498
300.083
300.091
300.091
300.091
300.09
300.083
301.759
301.894
302.196
302.668
303.614
317.217
312.528
311.242
310.414
310.197
300.084
300.09
300.09
300.085
300.082
301.72
301.882
302.192
302.667
303.615
317.218
312.419
311.027
310.041
309.652
309.128
300.081
300.083
300.083
300.083
301.666
301.868
302.187
302.666
303.617
317.216
312.288
310.785
309.657
308.657
308.227
301.545
301.648
301.856
302.181
302.664
303.618
317.211
312.159
310.556
309.3
308.146
307.06
306.409
305.646
301.526
301.528
301.635
301.847
302.177
302.662
303.618
317.206
312.047
310.369
309.033
307.802
306.648
305.604
304.975
303.953
303.144
302.45
301.979
301.693
301.538
301.534
301.635
301.845
302.175
302.661
303.619
317.202
311.96
310.229
308.846
307.576
306.398
305.337
304.389
303.568
302.876
302.327
301.933
301.681
301.555
301.542
301.639
301.847
302.175
302.661
303.619
317.198
311.897
310.132
308.721
307.43
306.239
305.175
304.247
303.46
302.812
302.303
301.931
301.687
301.562
301.548
301.642
301.848
302.176
302.661
303.619
317.196
311.857
310.071
308.645
307.342
306.145
305.08
304.162
303.393
302.768
302.28
301.922
301.686
301.564
301.55
301.644
301.849
302.176
302.661
303.619
317.195
311.838
310.042
308.609
307.301
306.101
305.036
304.123
303.362
302.746
302.268
301.917
301.684
301.564
301.551
301.645
301.85
302.176
302.661
303.619
317.195
311.837
310.04
308.606
307.299
306.098
305.033
304.12
303.359
302.743
302.265
301.914
301.682
301.562
301.55
301.644
301.849
302.176
302.661
303.619
317.196
311.856
310.069
308.642
307.34
306.142
305.077
304.159
303.39
302.765
302.278
301.92
301.684
301.562
301.549
301.643
301.849
302.176
302.661
303.619
317.198
311.896
310.13
308.719
307.428
306.237
305.173
304.245
303.457
302.809
302.3
301.928
301.684
301.56
301.546
301.641
301.848
302.175
302.661
303.619
317.202
311.959
310.227
308.845
307.575
306.398
305.337
304.387
303.565
302.871
302.323
301.929
301.678
301.553
301.541
301.638
301.846
302.175
302.661
303.619
317.207
312.046
310.367
309.032
307.804
306.654
305.607
304.756
303.885
303.093
302.457
302
301.713
301.536
301.534
301.635
301.846
302.175
302.661
303.619
317.212
312.158
310.555
309.301
308.153
307.07
306.099
305.085
304.292
301.658
301.538
301.528
301.636
301.848
302.177
302.662
303.619
317.218
312.289
310.786
309.662
308.665
307.75
307.011
301.525
301.65
301.858
302.183
302.665
303.618
317.222
312.421
311.031
310.05
309.279
308.579
300.106
300.105
301.57
301.647
301.872
302.189
302.667
303.618
317.223
312.532
311.248
310.426
309.939
309.572
300.106
300.113
300.112
300.105
300.104
301.692
301.887
302.196
302.669
303.617
317.223
312.598
311.38
310.671
310.389
300.106
300.114
300.114
300.113
300.112
300.105
301.744
301.901
302.2
302.671
303.616
317.223
312.598
311.38
310.671
310.507
300.107
300.114
300.114
300.113
300.112
300.105
301.758
301.901
302.2
302.671
303.616
317.223
312.532
311.248
310.426
310.215
300.107
300.113
300.112
300.106
300.105
301.72
301.887
302.196
302.669
303.617
317.222
312.421
311.031
310.05
309.666
309.123
300.106
300.106
300.106
300.105
301.67
301.872
302.189
302.667
303.618
317.218
312.289
310.786
309.662
308.665
308.245
301.544
301.65
301.858
302.183
302.665
303.618
317.212
312.158
310.555
309.301
308.153
307.07
306.401
305.625
301.524
301.528
301.636
301.848
302.177
302.662
303.619
317.207
312.046
310.367
309.032
307.804
306.654
305.607
304.981
303.933
303.137
302.449
301.981
301.69
301.536
301.534
301.635
301.846
302.175
302.661
303.619
317.202
311.959
310.227
308.845
307.575
306.398
305.337
304.387
303.565
302.871
302.323
301.929
301.678
301.553
301.541
301.638
301.846
302.175
302.661
303.619
317.198
311.896
310.13
308.719
307.428
306.237
305.173
304.245
303.457
302.809
302.3
301.928
301.684
301.56
301.546
301.641
301.848
302.175
302.661
303.619
317.196
311.856
310.069
308.642
307.34
306.142
305.077
304.159
303.39
302.765
302.278
301.92
301.684
301.562
301.549
301.643
301.849
302.176
302.661
303.619
317.195
311.837
310.04
308.606
307.299
306.098
305.033
304.12
303.359
302.743
302.265
301.914
301.682
301.562
301.55
301.644
301.849
302.176
302.661
303.619
317.194
311.835
310.037
308.603
307.295
306.094
305.029
304.116
303.355
302.74
302.262
301.911
301.68
301.56
301.548
301.643
301.848
302.175
302.66
303.619
317.196
311.854
310.066
308.639
307.336
306.139
305.073
304.155
303.386
302.761
302.274
301.917
301.681
301.56
301.547
301.642
301.848
302.175
302.66
303.619
317.198
311.894
310.127
308.716
307.425
306.234
305.169
304.241
303.453
302.805
302.296
301.924
301.682
301.558
301.545
301.64
301.847
302.175
302.66
303.619
317.202
311.956
310.224
308.841
307.572
306.395
305.334
304.383
303.56
302.867
302.319
301.925
301.676
301.551
301.54
301.637
301.846
302.175
302.66
303.619
317.207
312.044
310.364
309.03
307.803
306.652
305.604
304.753
303.88
303.089
302.454
301.997
301.71
301.534
301.532
301.634
301.845
302.175
302.661
303.619
317.213
312.156
310.552
309.299
308.152
307.067
306.098
305.079
304.285
301.656
301.536
301.527
301.636
301.848
302.178
302.662
303.619
317.219
312.287
310.784
309.66
308.663
307.749
307.004
301.524
301.65
301.858
302.183
302.665
303.619
317.224
312.42
311.03
310.049
309.281
308.573
300.133
300.133
301.569
301.647
301.873
302.19
302.668
303.618
317.226
312.533
311.248
310.425
309.94
309.567
300.134
300.141
300.14
300.132
300.131
301.691
301.888
302.197
302.671
303.618
317.227
312.599
311.381
310.67
310.388
300.135
300.142
300.142
300.141
300.139
300.131
301.744
301.902
302.202
302.672
303.617
317.227
312.599
311.381