/*--------------------------------*- C++ -*----------------------------------*\
  =========                 |
  \\      /  F ield         | OpenFOAM: The Open Source CFD Toolbox
   \\    /   O peration     | Website:  https://openfoam.org
    \\  /    A nd           | Version:  11
     \\/     M anipulation  |
\*---------------------------------------------------------------------------*/
FoamFile
{
    format      ascii;
    class       volVectorField;
    location    "0.0002";
    object      U;
}
// * * * * * * * * * * * * * * * * * * * * * * * * * * * * * * * * * * * * * //

dimensions      [0 1 -1 0 0 0 0];

internalField   nonuniform List<vector> 
21740
(
(41.4287 -0.0665205 0.00135712)
(53.6498 -0.240416 0.00335454)
(41.1412 -0.416381 0.00524004)
(39.5132 -0.593805 0.00758854)
(37.2697 -0.756042 0.00974163)
(34.1194 -0.870359 0.0110606)
(30.8999 -0.901597 0.0112174)
(27.644 -0.823539 0.010502)
(24.3102 -0.646113 0.00965718)
(20.8604 -0.416568 0.00880345)
(17.3191 -0.195076 0.00787586)
(13.7799 -0.0287635 0.00688066)
(10.3677 0.0672685 0.00582142)
(7.20552 0.105901 0.0048141)
(4.35247 0.10751 0.00395066)
(1.88175 0.0901408 0.00323035)
(-0.171476 0.0667679 0.00249072)
(-1.74819 0.0440776 0.00171759)
(-2.70005 0.0241866 0.000936059)
(-3.33994 0.00820703 0.00030553)
(41.2238 -0.203778 0.00144102)
(53.3218 -0.732551 0.00390688)
(40.8531 -1.26622 0.00635219)
(39.2467 -1.81045 0.00955267)
(37.052 -2.31747 0.0121379)
(34.0159 -2.68635 0.0131492)
(30.9703 -2.80045 0.0127258)
(27.9089 -2.55752 0.0112932)
(24.7191 -1.98271 0.00968587)
(21.3104 -1.23917 0.0086229)
(17.708 -0.531207 0.00780171)
(14.0468 -0.0175819 0.00671942)
(10.5078 0.259581 0.00543729)
(7.25106 0.36147 0.00431854)
(4.34172 0.347404 0.00361238)
(1.84517 0.282122 0.00305788)
(-0.214642 0.204742 0.00246372)
(-1.7891 0.133267 0.00174216)
(-2.73672 0.0725259 0.000949943)
(-3.3741 0.0245304 0.000302036)
(40.801 -0.347841 0.00152521)
(52.6377 -1.24797 0.00483425)
(40.2274 -2.16619 0.00818276)
(38.6405 -3.13329 0.0124615)
(36.5346 -4.07599 0.015125)
(33.7437 -4.80901 0.0147866)
(31.0939 -5.08548 0.0128374)
(28.4985 -4.6364 0.0108607)
(25.6533 -3.50612 0.00925408)
(22.3246 -2.02236 0.00880969)
(18.5563 -0.658382 0.00890599)
(14.5931 0.244759 0.00777691)
(10.7651 0.661934 0.00581338)
(7.30866 0.766194 0.00418496)
(4.28904 0.664784 0.00341037)
(1.75241 0.505761 0.00288565)
(-0.310715 0.351723 0.00241295)
(-1.87432 0.222606 0.00176569)
(-2.80998 0.119153 0.000977499)
(-3.44095 0.0400316 0.000309939)
(40.1546 -0.494265 0.00167652)
(51.5763 -1.77786 0.00610449)
(39.2155 -3.11769 0.0105094)
(37.6028 -4.60245 0.0152447)
(35.5825 -6.1551 0.0158005)
(33.1841 -7.47782 0.0106082)
(31.2121 -8.0758 0.00799476)
(29.5544 -7.2219 0.00273308)
(27.3695 -5.44949 0.00710993)
(24.1763 -2.84982 0.0116985)
(20.0068 -0.49042 0.0125148)
(15.4172 0.952162 0.0125207)
(11.0728 1.31662 0.00970009)
(7.27849 1.42695 0.00496704)
(4.12089 1.08918 0.00425517)
(1.56339 0.76339 0.00301441)
(-0.477066 0.500568 0.00240151)
(-2.00941 0.305272 0.00182584)
(-2.92001 0.159947 0.00104467)
(-3.53882 0.0533149 0.000336034)
(39.2861 -0.631447 0.00178972)
(50.1184 -2.28399 0.0078433)
(37.7465 -4.06931 0.0125851)
(35.9752 -6.19371 0.015568)
(33.9208 -8.65185 0.00887542)
(32.0526 -11.1051 -0.00982645)
(31.048 -12.0305 -0.0159045)
(31.5014 -13.8458 -0.0111107)
(29.989 -10.0483 -0.00857024)
(27.745 -6.55915 0.0440762)
(23.142 -2.66268 0.0366967)
(17.4622 -0.387306 0.0484049)
(11.8194 0.781739 0.0199574)
(6.64524 2.14652 0.0102723)
(3.70234 1.60386 0.00740888)
(1.22122 1.01269 0.00335197)
(-0.732694 0.623208 0.00237013)
(-2.19575 0.365962 0.00190807)
(-3.06225 0.187761 0.00115378)
(-3.66161 0.0621783 0.000369391)
(38.2201 -0.734921 0.0020345)
(48.2817 -2.67602 0.00958267)
(35.7582 -4.85454 0.0134694)
(33.5374 -7.67817 0.0114264)
(31.1058 -11.5373 -0.00868266)
(29.4276 -15.6962 -0.0522731)
(31.0198 -19.4313 -0.11924)
(33.0047 -20.4886 0.0153136)
(26.9326 -10.1206 -0.0888477)
(11.4905 3.0086 0.00864185)
(6.7301 2.09391 0.0312091)
(2.78401 1.87431 0.0109995)
(0.685082 1.15126 0.00380381)
(-1.07387 0.672188 0.00219384)
(-2.42099 0.385146 0.00193145)
(-3.22385 0.19483 0.00126478)
(-3.79742 0.0643731 0.000428561)
(37.0299 -0.769636 0.00210531)
(46.1648 -2.81865 0.0106665)
(33.2827 -5.1779 0.0128448)
(30.1125 -8.36079 0.00592032)
(26.6281 -13.307 -0.0369049)
(25.5106 -20.8802 -0.0969317)
(21.7174 -19.8677 -0.0702822)
(2.6944 2.21296 0.0145129)
(0.00748083 0.981433 0.00278178)
(-1.44749 0.621283 0.00173449)
(-2.65174 0.352036 0.00183248)
(-3.3825 0.176361 0.00133155)
(-3.92891 0.05854 0.000466983)
(35.8543 -0.699389 0.00225092)
(43.9917 -2.58236 0.0116857)
(30.5598 -4.85522 0.0103507)
(26.2616 -8.12741 -0.00528682)
(22.8241 -15.5298 -0.0934213)
(20.1673 -21.8787 -0.211086)
(0.000266203 -0.000118503 -0.029928)
(0.000317054 -0.000237235 -0.0302446)
(0.72448 1.52494 -0.0101091)
(-0.0859484 0.853486 -0.00344983)
(-1.74917 0.448331 0.000562219)
(-2.83747 0.258406 0.00141824)
(-3.51138 0.132006 0.00134266)
(-4.03747 0.0449529 0.000522042)
(34.8834 -0.499587 0.00234542)
(42.1125 -1.8555 0.0123126)
(27.9855 -3.55686 0.00668052)
(21.9724 -6.25029 -0.0230757)
(16.2464 -10.7253 -0.109391)
(7.94625 -16.1148 -0.12276)
(4.05609e-05 -0.000336593 -0.0304152)
(0.00272108 0.0019487 -0.0617774)
(-0.00184532 0.00202109 -0.0616836)
(0.00556813 -0.00058273 -0.0305819)
(0.000176166 0.000254012 -0.0300101)
(-0.237502 0.429682 -0.00428592)
(-1.86333 0.230382 -0.00168048)
(-2.93655 0.144352 0.000655911)
(-3.59187 0.0772168 0.00128131)
(-4.11043 0.0273143 0.000576596)
(34.3242 -0.182678 0.00240241)
(41.0053 -0.675434 0.0125467)
(26.3808 -1.28407 0.00480869)
(19.2136 -2.25945 -0.0247789)
(11.4622 -5.21215 -0.124712)
(8.53922e-06 -2.24951e-05 -0.0299818)
(0.00232239 0.00222902 -0.0618611)
(0.00032885 -0.000169719 -0.0618436)
(0.00062493 -0.000133164 -0.0617607)
(-0.00165916 0.00232324 -0.0616337)
(0.00485774 5.46363e-05 -0.0304859)
(-0.317715 0.0766048 -0.00741998)
(-1.89458 0.0810812 -0.00247534)
(-2.97401 0.0511589 0.000215938)
(-3.62767 0.0265281 0.00123168)
(-4.14569 0.00932473 0.000599144)
(34.3242 0.182739 0.00240209)
(41.0053 0.675548 0.0125471)
(26.3807 1.28413 0.0048109)
(19.2135 2.25947 -0.0247602)
(9.81388 2.1028 -0.111952)
(-0.000197495 8.15145e-06 -0.0303019)
(0.00231883 -0.00222514 -0.0618326)
(0.000330952 0.000156412 -0.0618539)
(0.000629578 0.000131358 -0.0617057)
(-0.00167048 -0.00231878 -0.0616081)
(0.00556137 -2.77401e-05 -0.0305867)
(-0.31432 -0.020353 -0.00725044)
(-1.89455 -0.0811823 -0.0024765)
(-2.97399 -0.0512147 0.00020692)
(-3.62766 -0.0265512 0.00122629)
(-4.14569 -0.00932792 0.000598915)
(34.8835 0.499616 0.00234486)
(42.1125 1.85555 0.0123115)
(27.9855 3.55688 0.00668674)
(21.9723 6.25023 -0.0230964)
(12.4483 8.66049 -0.109856)
(-0.000453954 0.00531717 -0.0306729)
(0.00270758 -0.00195322 -0.0618055)
(-0.00182787 -0.00202697 -0.0616719)
(0.00551477 0.00501927 -0.0302734)
(0.00037083 -8.16755e-05 -0.0304887)
(-0.303824 -0.201843 -0.00509937)
(-1.86319 -0.230489 -0.00168602)
(-2.93649 -0.144399 0.000640707)
(-3.59183 -0.0772362 0.00127168)
(-4.11041 -0.0273176 0.000574983)
(35.8543 0.699378 0.00225096)
(43.9916 2.58233 0.0116857)
(30.5597 4.85518 0.0103526)
(26.2614 8.12735 -0.00527781)
(18.3917 12.0471 -0.0914219)
(10.1613 21.4231 -0.161309)
(0.000296532 0.000199447 -0.0300618)
(0.000327519 0.00481292 -0.0305847)
(0.000387721 0.00529934 -0.030634)
(0.000306878 0.000173447 -0.030507)
(-0.270751 -0.678444 -0.00568145)
(-1.74902 -0.448342 0.000557618)
(-2.83736 -0.258413 0.0014115)
(-3.51132 -0.132012 0.00133595)
(-4.03744 -0.0449553 0.00052067)
(37.0299 0.769598 0.00210584)
(46.1647 2.81857 0.010667)
(33.2826 5.17782 0.0128445)
(30.1124 8.36076 0.00592296)
(26.6278 13.3068 -0.0369009)
(20.444 18.5627 -0.0660525)
(0.960602 -2.28431 -0.00390867)
(0.00775245 -0.981154 0.00278916)
(-1.44741 -0.621181 0.00173697)
(-2.65168 -0.352 0.00183063)
(-3.38245 -0.176349 0.00133043)
(-3.92889 -0.0585403 0.000466759)
(38.2201 0.734874 0.00203532)
(48.2817 2.67592 0.00958311)
(35.7581 4.85445 0.0134688)
(33.5373 7.67809 0.0114288)
(31.1059 11.5372 -0.00873625)
(29.4281 15.6966 -0.052349)
(27.9937 23.0358 0.00197543)
(25.8726 15.0478 -0.162057)
(6.30388 -2.52416 0.0205007)
(2.78382 -1.87364 0.0110078)
(0.684919 -1.1511 0.00380633)
(-1.07389 -0.672098 0.00219552)
(-2.42098 -0.385103 0.00192974)
(-3.22383 -0.194813 0.0012641)
(-3.7974 -0.0643722 0.000428479)
(39.2861 0.631409 0.00179047)
(50.1183 2.2839 0.00784464)
(37.7464 4.06926 0.0125838)
(35.9752 6.1937 0.0155683)
(33.9208 8.65203 0.008806)
(32.0524 11.1052 -0.00990474)
(31.0481 12.0302 -0.0159194)
(29.4106 12.5752 -0.0210565)
(32.9122 14.7225 0.158133)
(29.6922 3.77058 0.0417969)
(24.8593 -0.128324 0.00397077)
(18.1916 -2.98741 -0.0786694)
(11.8566 -3.60153 0.00966044)
(6.64529 -2.14669 0.0102408)
(3.70237 -1.604 0.00739348)
(1.2212 -1.0127 0.00335484)
(-0.73273 -0.623173 0.00236863)
(-2.19576 -0.365934 0.001909)
(-3.06225 -0.187749 0.00115312)
(-3.6616 -0.0621774 0.000369316)
(40.1546 0.494244 0.00167709)
(51.5762 1.77783 0.00610468)
(39.2154 3.11769 0.010509)
(37.6029 4.60251 0.0152421)
(35.5825 6.15521 0.0157946)
(33.1841 7.47795 0.0106016)
(31.2121 8.07592 0.00799278)
(29.5544 7.22218 0.00273659)
(27.3695 5.45 0.00714211)
(24.1762 2.85048 0.0116877)
(20.0066 0.490723 0.0124641)
(15.4173 -0.952155 0.0125165)
(11.073 -1.31683 0.00970255)
(7.27865 -1.42703 0.00497783)
(4.12092 -1.08923 0.00423689)
(1.56339 -0.763408 0.00301364)
(-0.477075 -0.500559 0.00240146)
(-2.00942 -0.305258 0.00182569)
(-2.92002 -0.159936 0.0010451)
(-3.53882 -0.0533105 0.000335607)
(40.801 0.347835 0.0015256)
(52.6377 1.24797 0.00483503)
(40.2275 2.16622 0.00818199)
(38.6406 3.13336 0.0124601)
(36.5347 4.07609 0.015123)
(33.7438 4.8091 0.0147848)
(31.0939 5.0856 0.0128363)
(28.4985 4.63654 0.0108603)
(25.6532 3.50624 0.00923524)
(22.3245 2.0224 0.0087791)
(18.5562 0.658531 0.00890059)
(14.5932 -0.244592 0.00777099)
(10.7653 -0.661909 0.00584239)
(7.3088 -0.766218 0.00424349)
(4.2891 -0.664795 0.00343331)
(1.75242 -0.505763 0.00288373)
(-0.310723 -0.35172 0.00241512)
(-1.87434 -0.222601 0.00176662)
(-2.80999 -0.119156 0.000984835)
(-3.44095 -0.0400367 0.000316784)
(41.2237 0.203779 0.00144136)
(53.3217 0.73256 0.00390729)
(40.8532 1.26625 0.00635258)
(39.2468 1.8105 0.00955186)
(37.0521 2.31753 0.0121368)
(34.016 2.68641 0.0131482)
(30.9704 2.80052 0.0127244)
(27.9089 2.55759 0.0112913)
(24.7191 1.98279 0.00967391)
(21.3103 1.23926 0.00860734)
(17.7079 0.531317 0.00779519)
(14.0469 0.017659 0.00671648)
(10.5079 -0.25954 0.00543519)
(7.25117 -0.361485 0.00434082)
(4.34179 -0.347439 0.00363534)
(1.84519 -0.282132 0.00305682)
(-0.214651 -0.204746 0.002466)
(-1.78911 -0.133266 0.00174236)
(-2.73674 -0.0725182 0.000957292)
(-3.3741 -0.0245243 0.000308689)
(41.4286 0.0665214 0.00135757)
(53.6498 0.240421 0.00335573)
(41.1413 0.416392 0.00524086)
(39.5134 0.593822 0.00758899)
(37.2698 0.756063 0.00974055)
(34.1195 0.87038 0.011059)
(30.8999 0.90162 0.0112158)
(27.644 0.823563 0.0104994)
(24.3102 0.646136 0.00965335)
(20.8603 0.416594 0.00879834)
(17.3191 0.195109 0.00787076)
(13.7799 0.0287894 0.00687701)
(10.3678 -0.0672595 0.00581888)
(7.20561 -0.105897 0.00481241)
(4.35253 -0.107514 0.00394991)
(1.88177 -0.0901446 0.00322985)
(-0.171475 -0.0667705 0.00249065)
(-1.7482 -0.0440788 0.00171745)
(-2.70007 -0.0241894 0.000935721)
(-3.33993 -0.00821045 0.000305195)
(41.4337 -0.0665501 0.00329101)
(53.6597 -0.240595 0.00926654)
(41.1503 -0.416533 0.0135955)
(39.5219 -0.593732 0.0178359)
(37.2774 -0.755748 0.0218151)
(34.1258 -0.869742 0.0248943)
(30.9049 -0.900846 0.0269139)
(27.6478 -0.822902 0.0278478)
(24.313 -0.645741 0.0277008)
(20.8622 -0.416502 0.0268483)
(17.32 -0.195235 0.0252476)
(13.7799 -0.0290486 0.0228797)
(10.367 0.067002 0.0198985)
(7.20433 0.105665 0.016736)
(4.35099 0.107362 0.0135611)
(1.88011 0.0900527 0.0105348)
(-0.1732 0.0667195 0.00775552)
(-1.74998 0.0440286 0.005244)
(-2.70196 0.0241519 0.00297326)
(-3.34192 0.00819664 0.00102844)
(41.2286 -0.203895 0.00321368)
(53.3317 -0.732669 0.00917538)
(40.8622 -1.26647 0.0135109)
(39.2554 -1.81057 0.0177751)
(37.0599 -2.31705 0.0218444)
(34.0226 -2.68517 0.0252123)
(30.9754 -2.79908 0.0273343)
(27.9126 -2.55627 0.0282667)
(24.7217 -1.98189 0.0281512)
(21.312 -1.23903 0.0270733)
(17.7088 -0.531501 0.025148)
(14.0469 -0.0182287 0.0226166)
(10.5072 0.259008 0.0196949)
(7.24991 0.360998 0.0165349)
(4.34019 0.347071 0.0133671)
(1.84345 0.281915 0.0103609)
(-0.216449 0.204553 0.0075949)
(-1.79093 0.133116 0.00510969)
(-2.73862 0.0724303 0.00289206)
(-3.37605 0.0244889 0.000996993)
(40.8056 -0.34808 0.00302479)
(52.6481 -1.24843 0.00897657)
(40.2366 -2.16633 0.0135427)
(38.6493 -3.13262 0.017893)
(36.5428 -4.07396 0.0220081)
(33.7505 -4.80558 0.0255306)
(31.0988 -5.0829 0.0275054)
(28.5024 -4.63604 0.0283603)
(25.6567 -3.50639 0.0281936)
(22.3274 -2.0232 0.0268205)
(18.5583 -0.65894 0.0247738)
(14.5943 0.243865 0.0220971)
(10.7652 0.66109 0.0193712)
(7.30768 0.765237 0.0161989)
(4.28762 0.664186 0.0130188)
(1.7506 0.505468 0.0100616)
(-0.31264 0.351425 0.00726)
(-1.87619 0.222349 0.00483716)
(-2.81182 0.118987 0.00271437)
(-3.44282 0.0399711 0.000923776)
(40.1589 -0.494516 0.00288309)
(51.5869 -1.77794 0.00889445)
(39.225 -3.11734 0.0138003)
(37.612 -4.6008 0.0186275)
(35.5906 -6.15107 0.0236054)
(33.1906 -7.47195 0.0277545)
(31.2169 -8.07333 0.0285188)
(29.5599 -7.23432 0.0269934)
(27.3776 -5.45792 0.0270772)
(24.1843 -2.8515 0.0259419)
(20.0137 -0.488132 0.0237011)
(15.4219 0.954924 0.0208644)
(11.0755 1.31869 0.0189849)
(7.27953 1.42588 0.015149)
(4.12059 1.08862 0.0123412)
(1.56192 0.763041 0.00965639)
(-0.479023 0.500239 0.00679812)
(-2.01126 0.304978 0.00444474)
(-2.92177 0.159754 0.00246247)
(-3.54058 0.053235 0.000828793)
(39.2899 -0.631665 0.00268034)
(50.1294 -2.28378 0.00904103)
(37.7565 -4.06864 0.014506)
(35.9846 -6.19222 0.0205689)
(33.9274 -8.65092 0.0284434)
(32.0597 -11.1211 0.0365749)
(31.0395 -12.0636 0.0363717)
(32.1873 -14.1053 0.0630449)
(30.1161 -10.1665 0.0491014)
(27.7828 -6.58754 0.0474206)
(23.1735 -2.64548 0.0427542)
(17.4849 -0.316847 0.0407646)
(11.8321 0.797382 0.0262545)
(6.64596 2.15275 0.0120141)
(3.70576 1.60703 0.0106179)
(1.22103 1.01315 0.00869449)
(-0.734191 0.623102 0.00621156)
(-2.1975 0.365714 0.00398319)
(-3.06391 0.187561 0.00216864)
(-3.66324 0.0620997 0.000723552)
(38.2236 -0.735085 0.00252659)
(48.293 -2.67559 0.00950119)
(35.7685 -4.85395 0.0156712)
(33.5447 -7.68 0.0234184)
(31.1078 -11.5557 0.0359966)
(29.4236 -15.7547 0.043696)
(31.8291 -19.8929 0.0111651)
(33.0522 -20.5323 0.0183341)
(26.9425 -10.017 0.00853985)
(11.4988 2.95176 0.0176475)
(6.73924 2.13119 0.0183346)
(2.78769 1.88001 0.00904044)
(0.686657 1.15317 0.0082132)
(-1.07493 0.672283 0.0057943)
(-2.42265 0.38499 0.00358546)
(-3.22545 0.194654 0.00188367)
(-3.79892 0.0642963 0.000618009)
(37.0334 -0.769748 0.00256128)
(46.1762 -2.81784 0.0106587)
(33.2922 -5.17603 0.0173564)
(30.1155 -8.36058 0.0249337)
(26.6085 -13.3401 0.0375022)
(26.4904 -21.2745 0.00871834)
(21.7659 -19.8505 0.00998165)
(2.69356 2.2023 0.00903784)
(0.00893415 0.98146 0.0074577)
(-1.44828 0.62191 0.00524491)
(-2.65328 0.352162 0.00326006)
(-3.38404 0.176268 0.0016782)
(-3.93034 0.0584838 0.000555745)
(35.8579 -0.699391 0.00263908)
(44.003 -2.58132 0.0121345)
(30.5674 -4.85505 0.0202015)
(26.248 -8.13154 0.0307291)
(24.2665 -15.8133 0.0128394)
(20.2336 -21.986 0.0201599)
(0.000228982 6.54227e-07 -0.15347)
(0.000422023 -0.00022983 -0.153401)
(0.721857 1.5218 0.00419854)
(-0.0797357 0.853493 0.00560279)
(-1.74835 0.448933 0.00504204)
(-2.83875 0.258481 0.00310931)
(-3.51291 0.131953 0.00153958)
(-4.03886 0.0449306 0.000522828)
(34.8873 -0.499665 0.00265481)
(42.1238 -1.85505 0.0134372)
(27.9906 -3.55721 0.0232953)
(21.9457 -6.2556 0.039087)
(17.3654 -10.9288 0.000835942)
(7.96942 -16.174 0.049613)
(5.64296e-05 -0.000342608 -0.153932)
(0.00278411 0.00169402 -0.186681)
(-0.00170837 0.00178976 -0.186445)
(0.0205317 -0.00086835 -0.153653)
(0.000195802 0.000415746 -0.153342)
(-0.233607 0.428604 0.00264611)
(-1.86104 0.230635 0.00553889)
(-2.93757 0.144382 0.00316103)
(-3.59341 0.0771758 0.00144885)
(-4.11182 0.0272966 0.000497198)
(34.3284 -0.182646 0.00272635)
(41.0166 -0.674972 0.0142178)
(26.3838 -1.28311 0.0253498)
(19.1787 -2.25977 0.0412236)
(12.2915 -5.29117 -0.00417338)
(0.000184034 -1.47038e-05 -0.153744)
(0.00215118 0.002179 -0.186958)
(0.00027256 -0.00034638 -0.187123)
(0.000918428 -0.000299984 -0.186824)
(-0.00134066 0.00230515 -0.186196)
(0.018256 0.000544346 -0.153507)
(-0.3126 0.0756498 0.00231307)
(-1.89159 0.081458 0.00554262)
(-2.97483 0.0513699 0.00321785)
(-3.6292 0.0265612 0.00142411)
(-4.1471 0.00932253 0.000497771)
(34.3284 0.182705 0.00272529)
(41.0165 0.675084 0.014217)
(26.3837 1.28318 0.025325)
(19.1786 2.25978 0.0411924)
(10.6313 2.16327 0.00881542)
(-0.000135434 -1.72531e-05 -0.154064)
(0.00215637 -0.00218131 -0.186933)
(0.000275101 0.000344342 -0.187133)
(0.000923326 0.00029753 -0.186813)
(-0.00133985 -0.0023024 -0.186128)
(0.0206358 -0.000383976 -0.153518)
(-0.309101 -0.0199714 0.00230315)
(-1.89157 -0.0815632 0.00554448)
(-2.97482 -0.0514257 0.0032301)
(-3.62918 -0.0265858 0.00143267)
(-4.14709 -0.00932741 0.000497249)
(34.8874 0.499694 0.0026533)
(42.1238 1.8551 0.013434)
(27.9906 3.55723 0.0232671)
(21.9456 6.25557 0.039098)
(13.4738 8.8394 0.00345768)
(-0.000720617 0.0202923 -0.154178)
(0.00277988 -0.00169886 -0.186694)
(-0.00169656 -0.00179215 -0.186434)
(0.0203016 0.0196902 -0.153985)
(0.000435204 -0.000149857 -0.153435)
(-0.299087 -0.20162 0.00237373)
(-1.8609 -0.230739 0.00554597)
(-2.93752 -0.144428 0.00318385)
(-3.59337 -0.0771961 0.00147021)
(-4.1118 -0.0273009 0.000501632)
(35.8579 0.699381 0.00263938)
(44.003 2.5813 0.0121332)
(30.5673 4.85501 0.0201995)
(26.2478 8.13148 0.0307459)
(19.7956 12.2826 0.0114627)
(10.136 21.5456 0.038599)
(0.000443435 0.000252697 -0.153846)
(0.000847746 0.0182302 -0.154007)
(9.54838e-05 0.0203585 -0.153843)
(0.000347965 0.000214405 -0.153536)
(-0.26423 -0.677962 0.00471427)
(-1.7482 -0.448947 0.00504761)
(-2.83864 -0.258495 0.0031198)
(-3.51285 -0.131963 0.00154836)
(-4.03882 -0.0449317 0.000529009)
(37.0335 0.769711 0.00256309)
(46.1762 2.81776 0.0106606)
(33.2921 5.17596 0.0173529)
(30.1154 8.36054 0.0249305)
(26.6082 13.3399 0.0375078)
(21.2866 18.932 0.0199952)
(0.948871 -2.29096 0.00615364)
(0.0092019 -0.981179 0.00745745)
(-1.4482 -0.621806 0.00524595)
(-2.65322 -0.352121 0.00326071)
(-3.384 -0.176251 0.00168067)
(-3.93031 -0.0584832 0.000555683)
(38.2236 0.735038 0.00252931)
(48.2929 2.67549 0.00950406)
(35.7684 4.85386 0.0156705)
(33.5446 7.67992 0.02341)
(31.1079 11.5556 0.0360345)
(29.4241 15.755 0.0437351)
(28.5378 23.2959 0.011684)
(25.9392 15.021 0.036255)
(6.32078 -2.49883 0.00970741)
(2.78752 -1.87933 0.0090551)
(0.686491 -1.153 0.00821142)
(-1.07496 -0.672193 0.00579394)
(-2.42264 -0.384946 0.00358865)
(-3.22542 -0.194637 0.00188324)
(-3.79891 -0.0642953 0.000617939)
(39.2899 0.631627 0.0026828)
(50.1293 2.2837 0.00904518)
(37.7564 4.06859 0.0145039)
(35.9846 6.19221 0.0205605)
(33.9275 8.65108 0.0284691)
(32.0595 11.1211 0.0366214)
(31.0396 12.0633 0.036371)
(30.1026 12.9233 0.0231494)
(32.9675 14.6774 0.0213007)
(29.7408 3.71127 0.0241413)
(24.8879 -0.133458 0.0225589)
(18.1983 -2.9179 0.0232204)
(11.8635 -3.65886 0.0146851)
(6.64601 -2.1529 0.0120253)
(3.70578 -1.60718 0.0106419)
(1.22099 -1.01315 0.00869955)
(-0.734231 -0.623065 0.00621102)
(-2.19751 -0.365686 0.00398282)
(-3.06391 -0.187548 0.00216713)
(-3.66323 -0.0620991 0.000723336)
(40.1589 0.494495 0.00288487)
(51.5868 1.7779 0.00889657)
(39.225 3.11734 0.0138)
(37.612 4.60086 0.0186209)
(35.5907 6.15119 0.0235945)
(33.1907 7.47208 0.0277421)
(31.2169 8.07344 0.0285135)
(29.56 7.23462 0.0270112)
(27.3776 5.45842 0.0270624)
(24.1842 2.85213 0.0259185)
(20.0135 0.488421 0.0236732)
(15.4221 -0.954902 0.0208904)
(11.0758 -1.31892 0.0189522)
(7.2797 -1.42594 0.0151245)
(4.12062 -1.08866 0.0123329)
(1.56191 -0.763066 0.00964989)
(-0.479029 -0.500228 0.0067975)
(-2.01128 -0.304966 0.00444306)
(-2.92178 -0.159746 0.0024622)
(-3.54057 -0.0532349 0.000828246)
(40.8055 0.348074 0.00302593)
(52.6481 1.24843 0.00897874)
(40.2366 2.16636 0.0135415)
(38.6494 3.13269 0.0178894)
(36.5429 4.07406 0.0220011)
(33.7506 4.80567 0.0255228)
(31.0988 5.08302 0.0274999)
(28.5024 4.63617 0.0283551)
(25.6566 3.5065 0.0282024)
(22.3272 2.02325 0.0268271)
(18.5583 0.659098 0.0247753)
(14.5944 -0.243705 0.0220808)
(10.7654 -0.661053 0.019351)
(7.30781 -0.765264 0.0161415)
(4.28768 -0.664198 0.0129938)
(1.75061 -0.505467 0.0100616)
(-0.312649 -0.35142 0.00726362)
(-1.87621 -0.222343 0.00483692)
(-2.81184 -0.118984 0.00270945)
(-3.44281 -0.0399708 0.000918485)
(41.2286 0.203896 0.00321457)
(53.3317 0.732678 0.0091768)
(40.8623 1.2665 0.0135116)
(39.2555 1.81062 0.0177729)
(37.06 2.31711 0.0218405)
(34.0227 2.68523 0.0252078)
(30.9755 2.79915 0.0273291)
(27.9126 2.55634 0.0282597)
(24.7216 1.98196 0.028149)
(21.312 1.23911 0.0270685)
(17.7088 0.531604 0.025135)
(14.047 0.0183058 0.0226077)
(10.5073 -0.258967 0.0196885)
(7.25001 -0.361014 0.0165157)
(4.34026 -0.347106 0.0133456)
(1.84347 -0.281926 0.0103617)
(-0.216452 -0.20456 0.00759873)
(-1.79095 -0.133115 0.00510855)
(-2.73863 -0.0724282 0.00288743)
(-3.37604 -0.0244879 0.000991716)
(41.4337 0.0665511 0.00329195)
(53.6597 0.240601 0.00926882)
(41.1504 0.416545 0.0135965)
(39.522 0.593749 0.0178356)
(37.2775 0.755768 0.0218121)
(34.1259 0.869762 0.0248899)
(30.905 0.900868 0.0269088)
(27.6478 0.822925 0.02784)
(24.313 0.645762 0.0276894)
(20.8621 0.416527 0.0268336)
(17.32 0.195268 0.0252331)
(13.7799 0.0290739 0.0228685)
(10.367 -0.0669933 0.0198908)
(7.20441 -0.105662 0.0167309)
(4.35105 -0.107367 0.0135587)
(1.88014 -0.0900561 0.0105329)
(-0.173201 -0.0667231 0.00775453)
(-1.75 -0.0440291 0.00524385)
(-2.70198 -0.0241511 0.00297298)
(-3.34191 -0.00819606 0.00102804)
(41.4379 -0.066577 0.0043316)
(53.665 -0.240493 0.014597)
(41.1544 -0.41628 0.0242287)
(39.5254 -0.593341 0.0329142)
(37.28 -0.75518 0.0401366)
(34.1272 -0.869221 0.0454355)
(30.9053 -0.900471 0.0484328)
(27.6473 -0.822684 0.0494898)
(24.3118 -0.645704 0.0488903)
(20.8604 -0.416527 0.0466477)
(17.3176 -0.195325 0.0432184)
(13.777 -0.0291491 0.0387284)
(10.3638 0.066866 0.0336747)
(7.20109 0.105514 0.0282988)
(4.34788 0.107232 0.0229364)
(1.87724 0.0899555 0.0179156)
(-0.175807 0.0666458 0.0132806)
(-1.75236 0.0439813 0.0090211)
(-2.70415 0.0241254 0.00509699)
(-3.34403 0.00818357 0.00174919)
(41.2329 -0.203836 0.00434805)
(53.3373 -0.732351 0.0148705)
(40.8666 -1.26583 0.0247876)
(39.259 -1.80958 0.0337358)
(37.0625 -2.31581 0.0410421)
(34.0239 -2.684 0.0462103)
(30.9756 -2.7984 0.0491735)
(27.9119 -2.55613 0.0501963)
(24.7205 -1.98202 0.0492082)
(21.3103 -1.2392 0.0466833)
(17.7066 -0.531653 0.042964)
(14.0442 -0.0184151 0.0383429)
(10.5042 0.25875 0.0331754)
(7.24676 0.360645 0.0278632)
(4.33717 0.346734 0.0226069)
(1.84062 0.281649 0.0176453)
(-0.219038 0.204346 0.0130445)
(-1.79328 0.132969 0.00885013)
(-2.74077 0.0723465 0.00499826)
(-3.37812 0.0244613 0.00171249)
(40.81 -0.348013 0.00459206)
(52.654 -1.24785 0.0156286)
(40.2412 -2.16513 0.0258843)
(38.653 -3.13087 0.0352059)
(36.5451 -4.07206 0.0429352)
(33.7514 -4.80449 0.0479245)
(31.0985 -5.0831 0.0501594)
(28.5017 -4.63728 0.0504261)
(25.6559 -3.50792 0.0488922)
(22.3263 -2.02384 0.0462196)
(18.5567 -0.658723 0.042411)
(14.592 0.244336 0.0376455)
(10.7625 0.661226 0.032433)
(7.30472 0.764787 0.0269715)
(4.2848 0.663634 0.0218538)
(1.74792 0.505057 0.0170833)
(-0.315146 0.351098 0.0126119)
(-1.87846 0.222126 0.0085294)
(-2.81391 0.118857 0.00481497)
(-3.44482 0.0399235 0.00166003)
(40.1635 -0.494375 0.00478235)
(51.5934 -1.77705 0.0168233)
(39.2299 -3.11573 0.0278625)
(37.6155 -4.59888 0.037908)
(35.5922 -6.1499 0.0464732)
(33.1905 -7.4735 0.0514915)
(31.2154 -8.07562 0.0515878)
(29.5596 -7.2338 0.0493294)
(27.378 -5.45817 0.0472103)
(24.1847 -2.85103 0.0457801)
(20.013 -0.487373 0.042869)
(15.42 0.955706 0.0381235)
(11.0728 1.31884 0.032084)
(7.27659 1.42548 0.0255467)
(4.11831 1.08814 0.0204514)
(1.55964 0.762432 0.0161988)
(-0.481317 0.499784 0.0119604)
(-2.0134 0.304669 0.0080722)
(-2.92374 0.15958 0.00455733)
(-3.54247 0.0531805 0.00157235)
(39.2949 -0.631454 0.00506264)
(50.1364 -2.28261 0.0183932)
(37.7616 -4.06697 0.0307488)
(35.9875 -6.19134 0.0419892)
(33.9275 -8.65367 0.05169)
(32.0572 -11.1277 0.0552262)
(31.0387 -12.0664 0.0549957)
(32.1928 -14.1131 0.0748417)
(30.1136 -10.1725 0.05512)
(27.7863 -6.59055 0.0572702)
(23.175 -2.64614 0.0546775)
(17.4852 -0.316479 0.0530132)
(11.8305 0.79847 0.0378565)
(6.64326 2.15282 0.0230859)
(3.70384 1.60654 0.0183418)
(1.21945 1.01257 0.0146297)
(-0.735974 0.622569 0.0110269)
(-2.19937 0.365354 0.00748834)
(-3.06572 0.187371 0.00422596)
(-3.665 0.0620455 0.00146529)
(38.2292 -0.734839 0.0055558)
(48.3004 -2.67434 0.020381)
(35.7733 -4.85248 0.034093)
(33.5459 -7.68058 0.046303)
(31.1043 -11.5592 0.0545528)
(29.42 -15.7559 0.0534387)
(31.8342 -19.9051 0.0131406)
(33.0404 -20.5348 0.0371756)
(26.9418 -10.013 0.0405184)
(11.4975 2.94719 0.0278596)
(6.73665 2.12968 0.0263033)
(2.78602 1.8787 0.0161469)
(0.685539 1.1522 0.013062)
(-1.07623 0.671692 0.0100353)
(-2.4242 0.384636 0.00685582)
(-3.22706 0.194473 0.00387619)
(-3.80055 0.0642519 0.0013716)
(37.0396 -0.769455 0.00612102)
(46.1836 -2.81658 0.0225177)
(33.2961 -5.17464 0.0376295)
(30.1142 -8.36025 0.0494337)
(26.6043 -13.3385 0.054987)
(26.4903 -21.2833 0.015142)
(21.7518 -19.849 0.03788)
(2.69202 2.19893 0.0137479)
(0.00845746 0.980473 0.0108986)
(-1.449 0.621276 0.00875547)
(-2.65447 0.351849 0.00620104)
(-3.38546 0.176119 0.00353006)
(-3.93184 0.0584629 0.00128967)
(35.8647 -0.699187 0.00677745)
(44.01 -2.58066 0.0250325)
(30.5698 -4.85523 0.0422976)
(26.2464 -8.13526 0.0538325)
(24.27 -15.8204 0.0218845)
(20.22 -21.9821 0.0450886)
(0.000411751 3.25074e-06 -0.28087)
(0.000524622 -0.000362572 -0.280889)
(0.720884 1.52037 0.00961713)
(-0.0791942 0.852248 0.00829511)
(-1.74853 0.448079 0.00745336)
(-2.83945 0.258058 0.00567312)
(-3.51407 0.131768 0.00328027)
(-4.04025 0.0449074 0.00124893)
(34.8945 -0.49959 0.00734636)
(42.1299 -1.85492 0.0271962)
(27.9903 -3.55789 0.0462598)
(21.9394 -6.25896 0.0561059)
(17.3639 -10.9391 0.023532)
(7.96173 -16.17 0.0494955)
(-6.09452e-05 -0.000705732 -0.281845)
(0.00292235 0.000887052 -0.317429)
(-0.00137492 0.00103169 -0.316907)
(0.0364212 -0.00142545 -0.281223)
(0.000464168 0.000525704 -0.280148)
(-0.233198 0.427406 0.00616549)
(-1.86064 0.230045 0.00662894)
(-2.9378 0.144079 0.00539962)
(-3.59432 0.0770235 0.00314052)
(-4.1131 0.0272725 0.00124666)
(34.3358 -0.18264 0.00762104)
(41.022 -0.674995 0.0282943)
(26.3818 -1.2832 0.0484504)
(19.17 -2.26078 0.0565284)
(12.2882 -5.29406 0.0185268)
(0.000190431 -0.000131945 -0.281454)
(0.00155726 0.00206193 -0.317947)
(6.43433e-05 -0.000828478 -0.318925)
(0.00166202 -0.000761925 -0.318347)
(-0.000371775 0.00223455 -0.316462)
(0.0325057 0.00101342 -0.280614)
(-0.311955 0.0751334 0.00480006)
(-1.89086 0.0812948 0.00623329)
(-2.97483 0.0513045 0.00530864)
(-3.62999 0.0265151 0.00307951)
(-4.14831 0.0093122 0.00124705)
(34.3358 0.182698 0.00762042)
(41.022 0.675102 0.0282863)
(26.3818 1.28327 0.048488)
(19.1699 2.26081 0.0565887)
(10.6267 2.16278 0.0274199)
(-0.000320107 6.94415e-05 -0.281619)
(0.00153579 -0.00205968 -0.317891)
(5.64589e-05 0.000832281 -0.318932)
(0.00165806 0.000759822 -0.318357)
(-0.00038853 -0.00223627 -0.316389)
(0.0367162 -0.000733601 -0.280723)
(-0.308399 -0.0198295 0.0045893)
(-1.89084 -0.0814006 0.00622657)
(-2.97482 -0.0513633 0.00529034)
(-3.62997 -0.0265355 0.00306718)
(-4.1483 -0.00931193 0.00124735)
(34.8946 0.499619 0.00734312)
(42.1299 1.85498 0.0271857)
(27.9903 3.55788 0.0462949)
(21.9394 6.25887 0.0561356)
(13.4714 8.8452 0.0239875)
(-0.00122217 0.0361447 -0.282255)
(0.00291013 -0.000895076 -0.317441)
(-0.00136728 -0.00103285 -0.316944)
(0.0359133 0.0350491 -0.282122)
(0.000742525 -0.000246812 -0.280582)
(-0.298724 -0.20072 0.00528859)
(-1.86051 -0.230152 0.00662162)
(-2.93775 -0.144118 0.005377)
(-3.59427 -0.0770446 0.00311465)
(-4.11308 -0.0272828 0.00123653)
(35.8647 0.699179 0.00677872)
(44.0099 2.58064 0.0250313)
(30.5697 4.85521 0.042291)
(26.2462 8.13523 0.0538402)
(19.799 12.2935 0.0299772)
(10.1125 21.5444 0.0488207)
(0.000642258 0.000414645 -0.281457)
(0.00144114 0.0325201 -0.281635)
(-4.72324e-05 0.0363861 -0.281389)
(0.000580959 0.000455148 -0.280829)
(-0.263603 -0.676574 0.00718122)
(-1.74837 -0.448093 0.00744786)
(-2.83934 -0.258081 0.00566669)
(-3.51401 -0.131777 0.00326206)
(-4.04022 -0.0449017 0.00124033)
(37.0396 0.769419 0.00612521)
(46.1836 2.8165 0.0225225)
(33.296 5.17457 0.037625)
(30.1142 8.3602 0.0494218)
(26.604 13.3382 0.0549608)
(21.2875 18.9413 0.0483021)
(0.94689 -2.28935 0.0110919)
(0.00872791 -0.980187 0.0109094)
(-1.44892 -0.621167 0.00875549)
(-2.6544 -0.351802 0.00619674)
(-3.38541 -0.176105 0.00352834)
(-3.93182 -0.0584681 0.00128992)
(38.2292 0.734792 0.00556126)
(48.3003 2.67424 0.0203908)
(35.7732 4.85239 0.0340936)
(33.5458 7.6805 0.0462908)
(31.1044 11.5591 0.0545223)
(29.4204 15.7562 0.0533705)
(28.5368 23.3072 0.0411046)
(25.9339 15.0125 0.0413529)
(6.31949 -2.49457 0.0199537)
(2.78588 -1.87803 0.0161552)
(0.685369 -1.15204 0.0130728)
(-1.07626 -0.671601 0.0100356)
(-2.42419 -0.384591 0.00685664)
(-3.22704 -0.194459 0.00387511)
(-3.80053 -0.0642511 0.0013716)
(39.2949 0.631415 0.00506733)
(50.1363 2.28253 0.0184009)
(37.7615 4.06692 0.0307513)
(35.9874 6.19133 0.0419819)
(33.9275 8.65377 0.0516387)
(32.0571 11.1277 0.0551822)
(31.0388 12.0662 0.0549618)
(30.1055 12.9333 0.0457028)
(32.9634 14.6883 0.0424932)
(29.7405 3.70862 0.0416956)
(24.8875 -0.133793 0.0398114)
(18.1955 -2.91676 0.0352073)
(11.8613 -3.66138 0.0287144)
(6.64335 -2.15296 0.0230291)
(3.70387 -1.6067 0.0183103)
(1.21942 -1.01257 0.0146282)
(-0.736015 -0.622533 0.0110274)
(-2.19938 -0.365328 0.00748914)
(-3.06572 -0.187358 0.00422731)
(-3.66499 -0.062045 0.001465)