/*--------------------------------*- C++ -*----------------------------------*\
  =========                 |
  \\      /  F ield         | OpenFOAM: The Open Source CFD Toolbox
   \\    /   O peration     | Website:  https://openfoam.org
    \\  /    A nd           | Version:  11
     \\/     M anipulation  |
\*---------------------------------------------------------------------------*/
FoamFile
{
    format      ascii;
    class       volScalarField;
    location    "0.0002";
    object      p;
}
// * * * * * * * * * * * * * * * * * * * * * * * * * * * * * * * * * * * * * //

dimensions      [1 -1 -2 0 0 0 0];

internalField   nonuniform List<scalar> 
21740
(
243935
242898
241794
240574
239185
237567
235652
233372
230661
227464
223745
219476
214636
209194
203114
196390
189153
181907
176013
175096
243940
242914
241822
240614
239237
237627
235712
233414
230660
227395
223586
219229
214323
208854
202792
196117
188943
181761
175930
175070
243951
242948
241880
240701
239352
237766
235859
233531
230694
227281
223276
218717
213663
208140
202127
195563
188522
181473
175766
175020
243968
243001
241975
240843
239548
238016
236145
233790
230840
227179
222819
217889
212577
206961
201066
194709
187891
181049
175529
174948
243992
243075
242107
241049
239845
238417
236659
234789
231984
228263
223648
218338
212709
205173
199510
193520
187047
180499
175229
174860
244021
243167
242277
241322
240258
239016
237644
235626
232958
210471
204677
197340
191937
185976
179835
174880
174762
244053
243272
242476
241656
240795
239879
238731
196092
189844
184633
179064
174495
174656
244085
243375
242673
241995
241382
240721
187206
187207
192071
188869
183241
178293
174125
174557
244110
243458
242834
242270
241839
241474
187200
187250
187250
187217
187200
186353
182147
177689
173836
174483
244124
243505
242926
242434
242148
187206
187250
187313
187313
187249
187212
184483
181453
177341
173675
174442
244124
243505
242926
242434
242220
187206
187249
187313
187313
187249
187220
184052
181453
177341
173675
174442
244110
243458
242834
242270
242021
187216
187248
187249
187239
187205
185280
182147
177689
173836
174483
244085
243375
242673
241995
241632
241129
187198
187210
187220
187205
187554
183241
178293
174125
174557
244053
243272
242476
241656
240795
240313
194022
189843
184633
179064
174495
174656
244021
243167
242277
241322
240258
239016
238115
236368
202873
197340
191937
185976
179835
174880
174762
243992
243075
242107
241049
239845
238417
236658
235168
232207
228403
223417
217729
211724
205173
199510
193520
187047
180499
175229
174860
243968
243001
241975
240843
239548
238016
236144
233790
230840
227179
222819
217888
212576
206961
201066
194710
187891
181049
175529
174948
243951
242948
241880
240701
239352
237766
235858
233531
230694
227280
223275
218717
213662
208140
202127
195563
188522
181473
175766
175020
243940
242914
241821
240614
239237
237627
235712
233414
230660
227394
223586
219229
214322
208854
202792
196117
188943
181761
175930
175070
243935
242898
241793
240573
239185
237566
235652
233372
230660
227464
223744
219476
214636
209194
203114
196390
189153
181907
176013
175096
243933
242894
241787
240564
239173
237553
235636
233354
230640
227442
223719
219449
214609
209169
203093
196375
189144
181902
176011
175096
243939
242910
241814
240604
239225
237614
235696
233396
230639
227370
223558
219197
214290
208825
202769
196102
188935
181758
175929
175071
243949
242944
241873
240691
239341
237753
235843
233512
230672
227253
223241
218675
213617
208100
202100
195552
188520
181474
175767
175021
243967
242996
241967
240832
239537
238004
236132
233774
230817
227147
222773
217826
212508
206902
201033
194711
187904
181058
175534
174951
243990
243070
242099
241038
239836
238413
236655
234782
231971
228240
223610
218279
212635
205079
199475
193560
187091
180521
175240
174865
244019
243161
242267
241308
240242
239003
237638
235625
232954
210353
204589
197322
192063
186077
179877
174899
174769
244051
243266
242466
241642
240780
239870
238732
196086
190001
184747
179113
174517
174664
244083
243369
242663
241980
241369
240710
187131
187132
192122
188971
183334
178340
174148
174565
244108
243452
242823
242255
241824
241460
187121
187240
187240
187149
187126
186445
182223
177730
173857
174490
244122
243499
242915
242419
242135
187130
187240
187343
187342
187239
187142
184545
181514
177377
173694
174449
244122
243499
242915
242419
242207
187131
187239
187342
187342
187239
187156
184105
181514
177377
173694
174449
244108
243452
242823
242255
242007
187147
187238
187239
187192
187135
185357
182223
177730
173857
174490
244083
243369
242662
241980
241619
241116
187124
187141
187156
187134
187654
183334
178340
174148
174565
244051
243266
242466
241642
240780
240304
194053
190001
184747
179113
174517
174664
244019
243161
242267
241308
240242
239003
238114
236366
202774
197322
192063
186077
179877
174899
174769
243990
243070
242099
241038
239836
238413
236655
235161
232204
228382
223376
217643
211634
205079
199475
193560
187091
180521
175240
174865
243967
242996
241967
240832
239537
238004
236132
233774
230817
227146
222773
217826
212508
206902
201033
194711
187904
181058
175534
174951
243949
242944
241873
240691
239340
237753
235843
233512
230671
227252
223240
218675
213617
208099
202100
195552
188520
181474
175767
175021
243938
242910
241814
240604
239225
237613
235696
233395
230639
227370
223558
219197
214290
208825
202769
196102
188935
181758
175929
175071
243933
242894
241787
240564
239173
237553
235636
233354
230640
227441
223719
219449
214609
209169
203093
196375
189144
181902
176011
175096
243931
242886
241773
240546
239150
237526
235605
233319
230601
227398
223671
219398
214558
209122
203055
196348
189127
181893
176007
175095
243936
242902
241800
240585
239202
237586
235665
233360
230598
227323
223504
219138
214229
208770
202727
196076
188922
181753
175927
175071
243946
242935
241858
240671
239317
237727
235813
233477
230628
227199
223174
218595
213533
208025
202050
195532
188518
181477
175770
175023
243963
242987
241951
240812
239515
237985
236110
233744
230775
227087
222686
217706
212373
206787
200972
194720
187933
181077
175545
174956
243987
243059
242082
241018
239818
238413
236659
234774
231947
228191
223527
218138
212449
204877
199388
193662
187184
180563
175262
174874
244015
243150
242249
241284
240218
238980
237650
235627
232938
210044
204331
197229
192428
186291
179948
174934
174784
244048
243254
242446
241618
240759
239861
238761
196098
190416
184979
179200
174560
174681
244079
243356
242642
241953
241344
240694
187119
187124
192270
189246
183518
178426
174192
174580
244104
243439
242802
242228
241797
241433
187102
187111
187110
187125
187117
186663
182362
177805
173896
174504
244118
243486
242895
242392
242108
187119
187110
187280
187280
187110
187128
184691
181618
177439
173728
174461
244118
243486
242895
242392
242180
187124
187110
187279
187279
187110
187141
184229
181618
177439
173728
174461
244104
243439
242802
242228
241980
187124
187108
187109
187170
187130
185540
182361
177805
173896
174504
244079
243356
242642
241953
241592
241091
187115
187125
187140
187129
187899
183518
178426
174191
174580
244048
243254
242446
241618
240759
240294
194146
190416
184979
179200
174560
174681
244015
243150
242249
241284
240218
238980
238139
236380
202507
197229
192428
186291
179948
174934
174784
243987
243059
242082
241017
239818
238412
236659
235161
232184
228336
223284
217466
211391
204877
199388
193662
187184
180563
175262
174874
243963
242987
241951
240812
239515
237984
236110
233744
230775
227087
222686
217706
212372
206787
200971
194720
187933
181077
175545
174956
243946
242935
241858
240671
239317
237727
235813
233477
230628
227199
223174
218595
213533
208025
202050
195532
188518
181477
175770
175023
243936
242901
241800
240585
239202
237586
235665
233360
230598
227323
223504
219137
214229
208770
202727
196076
188922
181753
175927
175071
243930
242886
241773
240546
239150
237525
235605
233319
230601
227397
223671
219397
214557
209122
203055
196348
189127
181893
176007
175095
243926
242874
241753
240519
239116
237486
235560
233268
230544
227335
223603
219326
214486
209057
203002
196309
189103
181880
176002
175094
243932
242889
241780
240558
239168
237547
235620
233308
230539
227256
223428
219055
214145
208695
202669
196040
188903
181744
175925
175071
243942
242921
241837
240643
239283
237689
235771
233427
230567
227125
223082
218485
213418
207926
201982
195505
188516
181480
175774
175026
243959
242973
241928
240783
239484
237959
236083
233705
230717
227005
222566
217537
212184
206632
200884
194737
187977
181103
175559
174962
243982
243044
242058
240989
239796
238436
236680
234771
231918
228123
223404
217916
212140
204513
199120
193824
187327
180617
175290
174886
244010
243134
242223
241252
240172
239093
237778
235643
232919
209285
203749
197082
193685
186690
180032
174985
174806
244042
243237
242419
241586
240725
239889
238894
196284
191576
185352
179305
174620
174705
244073
243339
242614
241919
241313
240673
187284
187290
192470
189933
183774
178540
174252
174601
244098
243421
242773
242191
241758
241371
187241
188205
188204
187390
187248
187136
182553
177907
173949
174521
244112
243468
242866
242355
242070
187283
188206
188760
188760
188205
187338
184939
181758
177525
173774
174476
244112
243468
242866
242355
242142
187293
188204
188759
188759
188204
187419
184425
181758
177525
173773
174476
244098
243421
242773
242191
241942
187391
188202
188204
187614
187283
185895
182553
177907
173949
174521
244073
243339
242614
241919
241557
241035
187245
187334
187418
187282
188477
183774
178540
174252
174601
244042
243237
242419
241586
240725
240292
194309
191576
185352
179305
174620
174705
244010
243134
242223
241252
240172
239093
238312
236437
201940
197082
193685
186690
180032
174985
174806
243982
243044
242058
240989
239796
238436
236680
235184
232173
228273
223148
217157
210920
204513
199120
193824
187327
180617
175290
174886
243959
242973
241928
240783
239484
237959
236083
233704
230717
227005
222566
217537
212184
206632
200884
194737
187977
181103
175559
174962
243942
242921
241837
240642
239283
237689
235771
233427
230567
227124
223082
218485
213418
207925
201982
195505
188516
181480
175774
175026
243932
242889
241780
240558
239168
237547
235620
233308
230539
227255
223428
219054
214145
208695
202669
196039
188903
181744
175925
175071
243926
242874
241753
240518
239116
237486
235560
233268
230544
227334
223602
219325
214486
209057
203002
196309
189103
181880
176002
175094
243921
242858
241728
240484
239073
237435
235502
233203
230472
227256
223518
219238
214400
208979
202937
196262
189072
181863
175994
175093
243926
242873
241754
240522
239124
237495
235561
233242
230464
227172
223335
218955
214047
208607
202601
195995
188878
181731
175920
175071
243937
242905
241809
240606
239239
237641
235716
233362
230490
227032
222972
218359
213289
207817
201909
195473
188508
181479
175776
175028
243953
242955
241900
240746
239444
237924
236047
233655
230645
226906
222428
217353
211988
206485
200813
194755
188013
181125
175572
174968
243976
243025
242028
240953
239769
238454
236711
234775
231888
228039
223257
217661
211796
204210
199013
193984
187445
180671
175319
174898
244004
243114
242191
241218
240159
239375
237953
235881
232992
208357
203501
197748
194513
186973
180129
175038
174827
244035
243216
242386
241553
240718
240133
239428
196519
192873
185734
179424
174686
174729
244066
243317
242579
241880
241290
240911
190849
190860
193136
191438
184059
178669
174318
174623
244091
243399
242737
242146
241718
241352
190815
193339
193338
190967
190792
188165
182772
178023
174007
174539
244105
243445
242829
242309
242025
190851
193340
193789
193788
193339
190892
185250
181918
177624
173823
174490
244105
243445
242829
242309
242096
190853
193339
193789
193788
193339
191000
184652
181918
177624
173823
174490
244091
243399
242737
242146
241899
190967
193339
193339
191204
190805
186431
182772
178023
174007
174539
244066
243317
242579
241880
241527
241137
190788
190889
190997
190806
189816
184059
178669
174318
174623
244035
243216
242386
241553
240718
240551
194939
192873
185734
179424
174686
174729
244004
243114
242191
241218
240159
239375
238734
236838
201884
197748
194513
186973
180129
175038
174827
243975
243025
242028
240953
239769
238453
236711
235260
232187
228196
222989
216804
210286
204210
199013
193984
187445
180671
175319
174898
243953
242955
241900
240746
239444
237924
236046
233655
230645
226906
222427
217353
211988
206485
200813
194755
188013
181125
175572
174969
243937
242905
241809
240606
239239
237640
235716
233362
230490
227032
222972
218359
213289
207817
201909
195473
188508
181479
175776
175028
243926
242873
241754
240522
239124
237495
235561
233242
230464
227172
223335
218955
214047
208607
202601
195995
188878
181731
175920
175071
243921
242858
241728
240484
239073
237435
235501
233202
230472
227256
223518
219237
214399
208978
202937
196262
189072
181863
175994
175093
243915
242839
241697
240441
239020
237373
235431
233125
230387
227164
223421
219138
214303
208891
202865
196208
189035
181841
175984
175091
243920
242854
241722
240479
239071
237433
235491
233163
230376
227075
223230
218846
213941
208513
202527
195944
188846
181714
175913
175070
243930
242884
241776
240561
239186
237579
235646
233282
230398
226926
222850
218227
213160
207710
201836
195435
188491
181473
175775
175030
243946
242933
241865
240701
239392
237872
235989
233584
230554
226790
222280
217177
211817
206362
200757
194756
188030
181138
175582
174974
243968
243002
241992
240908
239727
238432
236699
234750
231829
227935
223101
217438
211547
204061
199007
194075
187523
180714
175343
174908
243996
243090
242154
241176
240137
239461
238109
236011
232995
208061
203514
198061
194807
187149
180216
175081
174842
244027
243191
242347
241510
240705
240297
239745
197110
193364
185980
179539
174742
174748
244058
243290
242537
241830
241266
241035
197536
197563
193844
192078
184309
178792
174377
174641
244082
243371
242692
242090
241676
241340
197509
199757
199758
197653
197517
188581
182990
178143
174062
174554
244096
243417
242783
242251
241971
197537
199760
199904
199904
199761
197610
185463
182101
177736
173874
174503
244096
243417
242783
242251
242041
197561
199761
199906
199906
199760
197720
184822
182101
177735
173874
174503
244082
243371
242692
242090
241849
197652
199763
199763
197886
197531
186726
182989
178143
174062
174554
244058
243290
242537
241830
241494
241185
197512
197608
197720
197533
190362
184309
178792
174377
174641
244027
243191
242347
241510
240705
240716
195601
193364
185980
179539
174742
174748
243996
243090
242154
241176
240137
239461
239010
237033
202059
198061
194807
187149
180216
175081
174842
243968
243002
241992
240908
239726
238432
236699
235282
232158
228103
222829
216543
209992
204061
199007
194075
187523
180714
175343
174908
243946
242933
241865
240701
239392
237871
235989
233584
230554
226790
222280
217177
211817
206362
200757
194756
188030
181138
175582
174974
243930
242884
241776
240561
239185
237579
235646
233282
230398
226926
222850
218227
213160
207710
201836
195435
188491
181473
175775
175030
243920
242854
241722
240479
239071
237433
235490
233162
230376
227074
223230
218846
213940
208513
202527
195944
188846
181714
175913
175070
243915
242839
241697
240441
239020
237373
235431
233124
230386
227164
223421
219138
214303
208891
202865
196208
189035
181841
175984
175091
243908
242817
241661
240392
238959
237302
235351
233035
230290
227062
223314
219031
214200
208798
202787
196148
188994
181815
175971
175088
243912
242831
241685
240429
239009
237361
235409
233071
230276
226967
223117
218731
213830
208416
202449
195887
188808
181692
175903
175069
243922
242861
241738
240510
239122
237506
235563
233188
230292
226808
222722
218093
213034
207605
201760
195387
188464
181459
175771
175030
243938
242909
241825
240647
239328
237800
235908
233490
230444
226659
222124
217005
211661
206251
200698
194736
188027
181140
175586
174977
243959
242976
241950
240853
239665
238373
236636
234681
231738
227812
222932
217229
211339
203930
198987
194109
187563
180742
175360
174916
243987
243062
242110
241121
240083
239432
238104
235999
232972
207676
203420
198175
194919
187249
180278
175112
174854
244018
243162
242301
241452
240651
240304
239780
197243
193540
186138
179630
174786
174762
244048
243260
242488
241765
241209
240991
203837
204112
194064
192294
184513
178899
174427
174656
244072
243340
242640
242018
241606
241266
204240
205514
205515
204201
204496
188726
183207
178259
174116
174570
244085
243385
242729
242176
241897
203839
205517
205353
205354
205518
204056
185581
182314
177852
173928
174518
244085
243385
242729
242176
241967
204116
205520
205358
205358
205520
204275
184922
182314
177852
173928
174518
244072
243340
242640
242018
241776
204209
205526
205525
204171
204012
186867
183206
178258
174115
174570
244048
243260
242488
241765
241431
241107
204500
204065
204282
204020
190547
184513
178899
174427
174656
244018
243162
242301
241452
240651
240717
195735
193540
186138
179630
174786
174762
243987
243062
242110
241121
240083
239432
239033
237003
201948
198175
194919
187249
180278
175112
174854
243959
242976
241950
240853
239665
238372
236635
235228
232125
228013
222670
216261
209754
203930
198987
194109
187563
180742
175360
174916
243938
242909
241825
240647
239328
237800
235908
233490
230444
226659
222124
217005
211661
206250
200698
194736
188027
181140
175586
174977
243922
242861
241738
240509
239122
237505
235563
233188
230292
226808
222722
218093
213034
207605
201760
195387
188464
181459
175771
175030
243912
242831
241685
240429
239008
237360
235408
233071
230276
226967
223117
218731
213830
208416
202449
195887
188808
181692
175903
175069
243908
242817
241661
240392
238959
237302
235351
233035
230290
227061
223314
219031
214200
208798
202787
196148
188994
181815
175971
175088
243899
242792
241620
240337
238891
237221
235260
232937
230185
226951
223201
218918
214092
208701
202705
196083
188947
181786
175957
175084
243904
242806
241644
240372
238939
237279
235317
232971
230168
226853
222998
218612
213716
208314
202365
195823
188764
181665
175891
175066
243913
242834
241695
240451
239050
237422
235470
233085
230180
226686
222592
217960
212906
207494
201675
195327
188425
181437
175762
175029
243928
242881
241780
240586
239255
237716
235815
233386
230328
226528
221977
216847
211513
206131
200616
194686
188001
181129
175584
174978
243950
242947
241903
240791
239592
238291
236547
234587
231630
227685
222773
217042
211154
203791
198918
194079
187558
180746
175367
174920
243977
243032
242062
241058
240009
239360
238041
235929
232917
211459
211445
211476
207331
203298
198150
194897
187268
180303
175129
174861
244007
243130
242250
241387
240576
240252
239728
211525
211418
211204
211148
211316
211506
211553
197226
193537
186186
179672
174811
174772
244037
243228
242436
241696
241134
240900
211528
211342
210834
210273
210165
210497
211147
211498
194101
192331
184587
178949
174456
174668
244061
243307
242587
241947
241524
241169
211423
210837
210785
210198
210199
210791
210363
211220
211504
188757
183290
178311
174146
174581
244074
243352
242676
242105
241817
211469
211213
210278
210201
209887
209888
210204
209821
210796
211441
185633
182398
177904
173958
174529
244074
243352
242676
242105
241887
211458
211160
210171
210205
209891
209891
210206
209724
210687
211412
184969
182398
177904
173958
174529
244061
243307
242587
241947
241695
211491
211332
210506
210805
210212
210211
210802
210044
210996
211488
186922
183290
178311
174146
174581
244037
243228
242436
241696
241353
240995
211527
211166
210378
209830
209731
210049
210765
211395
211519
190570
184587
178949
174456
174668
244007
243130
242250
241386
240576
240660
211578
211525
211242
210812
210700
211010
211404
211570
195707
193537
186186
179672
174811
174772
243977
243032
242062
241058
240009
239360
238976
236905
211535
211467
211435
211509
211536
201783
198149
194897
187268
180303
175129
174861
243950
242947
241903
240791
239592
238291
236547
235136
232064
227912
222515
216003
209544
203791
198918
194079
187558
180746
175367
174920
243928
242881
241780
240586
239255
237716
235814
233386
230328
226528
221977
216847
211512
206131
200616
194686
188001
181129
175584
174978
243913
242834
241695
240451
239050
237422
235470
233085
230179
226686
222592
217960
212906
207494
201675
195327
188425
181437
175762
175029
243904
242806
241644
240372
238938
237279
235317
232971
230168
226852
222998
218611
213716
208314
202365
195823
188764
181665
175891
175066
243899
242792
241620
240337
238890
237221
235260
232937
230184
226951
223201
218918
214092
208701
202705
196083
188947
181786
175957
175084
243890
242765
241574
240275
238814
237132
235161
232829
230071
226833
223081
218800
213980
208600
202619
196015
188898
181753
175940
175080
243894
242777
241597
240309
238861
237189
235217
232863
230053
226733
222875
218488
213598
208208
202276
195754
188715
181634
175875
175062
243903
242805
241647
240386
238971
237331
235369
232977
230064
226563
222463
217827
212777
207378
201578
195255
188377
181409
175749
175026
243918
242850
241730
240519
239174
237625
235717
233281
230214
226405
221846
216708
211368
205998
200509
194609
187954
181105
175575
174978
243939
242915
241851
240723
239511
238198
236450
234486
231518
227564
222642
216896
210993
203653
198802
193992
187513
180729
175364
174922
243966
242999
242009
240989
239929
239266
237952
235830
232767
207256
203120
198000
194759
187219
180290
175131
174865
243996
243097
242197
241318
240496
240159
239662
197214
193403
186135
179661
174815
174778
244025
243194
242383
241631
241061
240833
213131
213269
194120
192242
184517
178930
174459
174673
244049
243273
242535
241885
241454
241090
213061
213605
213607
213008
213021
188717
183194
178279
174145
174586
244063
243319
242625
242045
241749
213136
213607
213428
213430
213613
213178
185636
182290
177864
173953
174533
244063
243319
242625
242045
241819
213277
213612
213433
213434
213614
213099
184981
182290
177864
173953
174533
244049
243273
242535
241885
241626
213021
213620
213620
212960
213256
186905
183194
178279
174144
174586
244025
243194
242383
241631
241280
240932
213039
213192
213108
213264
190508
184517
178930
174459
174673
243996
243097
242197
241318
240496
240570
195761
193403
186135
179661
174815
174778
243966
242999
242009
240989
239929
239266
238900
236846
201729
197999
194759
187219
180290
175131
174865
243939
242915
241851
240723
239511
238198
236450
235037
231913
227763
222375
215904
209365
203653
198802
193992
187513
180729
175364
174922
243918
242850
241730
240519
239174
237625
235717
233281
230214
226404
221846
216708
211368
205998
200509
194609
187954
181105
175575
174978
243903
242805
241647
240386
238971
237331
235369
232977
230064
226563
222463
217827
212776
207378
201578
195255
188377
181409
175749
175026
243894
242777
241597
240309
238861
237189
235217
232863
230053
226732
222875
218488
213598
208207
202276
195754
188715
181634
175875
175062
243890
242765
241574
240275
238814
237132
235161
232829
230071
226833
223081
218800
213980
208600
202619
196015
188898
181753
175940
175080
243880
242734
241524
240206
238729
237034
235052
232712
229949
226708
222956
218679
213866
208498
202532
195946
188846
181720
175922
175075
243884
242746
241545
240239
238774
237089
235107
232745
229930
226606
222747
218362
213479
208100
202185
195682
188663
181601
175858
175057
243892
242772
241593
240314
238882
237230
235258
232858
229940
226435
222331
217695
212649
207261
201480
195179
188324
181378
175734
175022
243907
242816
241674
240444
239084
237523
235607
233164
230090
226275
221714
216574
211231
205869
200398
194524
187899
181076
175563
174976
243927
242879
241793
240646
239420
238093
236340
234376
231399
227439
222515
216761
210849
203526
198683
193893
187455
180702
175355
174922
243953
242962
241949
240911
239837
239160
237850
235727
232614
207229
202954
197856
194620
187152
180263
175126
174867
243983
243059
242137
241242
240405
240052
239581
197191
193281
186063
179632
174812
174781
244013
243156
242324
241557
240982
240765
215897
215914
194120
192148
184428
178894
174455
174678
244036
243236
242478
241814
241378
241008
215834
216360
216363
215826
215889
188690
183088
178232
174138
174591
244050
243282
242568
241976
241675
215898
216361
216257
216260
216370
215898
185627
182175
177811
173945
174539
244050
243282
242568
241976
241746
215918
216365
216261
216263
216371
215883
184979
182175
177811
173945
174539
244036
243236
242478
241814
241552
215834
216373
216374
215795
215922
186883
183087
178232
174138
174591
244013
243156
242324
241557
241203
240873
215897
215906
215888
215927
190450
184428
178894
174455
174678
243983
243059
242137
241242
240405
240470
195792
193281
186063
179632
174812
174781
243953
242962
241949
240911
239837
239160
238812
236776
201693
197855
194620
187152
180263
175126
174867
243927
242879
241793
240646
239419
238093
236340
234930
231750
227607
222233
215816
209212
203525
198682
193893
187455
180702
175355
174922
243906
242816
241674
240444
239084
237522
235607
233164
230090
226275
221714
216573
211230
205869
200398
194524
187899
181076
175563
174976
243892
242772
241593
240313
238882
237230
235258
232858
229939
226434
222331
217695
212648
207261
201480
195179
188324
181378
175734
175022
243884
242746
241545
240239
238774
237089
235106
232745
229930
226606
222747
218362
213479
208100
202185
195682
188663
181601
175858
175057
243880
242734
241524
240206
238729
237034
235052
232712
229949
226708
222956
218678
213866
208498
202532
195946
188846
181720
175922
175075
243868
242700
241468
240130
238635
236925
234932
232585
229817
226575
222826
218554
213751
208395
202445
195876
188795
181686
175904
175069
243872
242711
241488
240161
238679
236978
234985
232615
229796
226471
222614
218234
213360
207995
202096
195611
188611
181567
175841
175052
243880
242736
241533
240233
238783
237116
235133
232726
229803
226296
222194
217562
212524
207150
201386
195106
188272
181345
175718
175018
243894
242777
241611
240360
238980
237404
235478
233028
229950
226132
221573
216435
211100
205752
200298
194447
187846
181045
175550
174973
243913
242839
241727
240557
239312
237970
236208
234245
231262
227299
222374
216616
210709
203410
198582
193810
187402
180674
175345
174921
243939
242919
241881
240820
239727
239035
237729
235605
232478
207108
202842
197758
194525
187097
180238
175118
174867
243968
243016
242067
241150
240295
239938
239470
197137
193203
186012
179609
174808
174784
243998
243112
242254
241465
240882
240662
218271
218277
194080
192093
184382
178871
174454
174683
244021
243192
242408
241724
241280
240899
218261
218705
218709
218251
218289
188670
183044
178209
174138
174597
244035
243238
242500
241886
241578
218269
218703
218628
218633
218716
218280
185622
182132
177787
173945
174545
244035
243238
242500
241886
241650
218274
218705
218631
218635
218718
218271
184974
182132
177787
173945
174545
244021
243192
242408
241724
241454
218249
218713
218716
218230
218297
186875
183043
178208
174138
174597
243998
243112
242254
241465
241104
240769
218286
218277
218269
218297
190412
184381
178871
174454
174683
243968
243015
242067
241150
240294
240361
195748
193203
186012
179609
174808
174784
243939
242919
241881
240820
239727
239035
238697
236660
201622
197757
194525
187097
180238
175118
174868
243913
242839
241727
240557
239312
237970
236208
234801
231612
227459
222083
215662
209065
203410
198582
193810
187402
180674
175345
174921
243894
242777
241611
240360
238980
237404
235478
233028
229950
226132
221573
216435
211100
205752
200298
194447
187847
181045
175550
174973
243880
242736
241533
240232
238783
237116
235133
232726
229803
226296
222194
217562
212524
207150
201386
195106
188272
181345
175718
175018
243872
242711
241488
240161
238678
236978
234984
232615
229796
226470
222613
218234
213360
207995
202096
195611
188611
181567
175841
175052
243868
242699
241468
240130
238635
236925
234932
232584
229817
226575
222825
218553
213751
208395
202445
195876
188795
181686
175904
175069
243856
242662
241406
240045
238531
236805
234799
232444
229673
226433
222688
218425
213634
208293
202359
195808
188744
181652
175885
175064
243859
242672
241424
240074
238572
236855
234849
232472
229650
226326
222474
218103
213241
207891
202009
195543
188561
181534
175823
175047
243866
242695
241466
240142
238671
236987
234992
232578
229652
226147
222050
217427
212401
207043
201298
195036
188222
181313
175702
175014
243879
242734
241540
240263
238862
237269
235331
232874
229793
225978
221424
216296
210974
205643
200208
194377
187797
181015
175535
174969
243898
242792
241651
240455
239187
237826
236054
234093
231107
227144
222222
216471
210575
203302
198494
193740
187355
180647
175333
174919
243923
242871
241801
240712
239595
238884
237581
235454
232323
206976
202733
197670
194447
187051
180215
175110
174867
243951
242965
241985
241040
240160
239799
239326
197063
193132
185973
179591
174803
174784
243980
243061
242171
241354
240760
240527
220316
220322
194021
192032
184352
178858
174452
174684
244004
243140
242324
241614
241160
240769
220314
220709
220717
220312
220341
188631
183022
178199
174139
174600
244017
243186
242416
241778
241462
220309
220704
220648
220655
220726
220330
185602
182115
177779
173947
174548
244017
243186
242416
241778
241535
220311
220705
220650
220657
220727
220323
184957
182115
177779
173947
174548
244004
243140
242324
241614
241337
220299
220714
220721
220296
220342
186849
183022
178199
174139
174600
243980
243061
242171
241354
240983
240636
220326
220317
220314
220338
190362
184352
178858
174452
174684
243951
242965
241985
241039
240160
240224
195680
193132
185973
179591
174803
174784
243923
242871
241801
240712
239595
238884
238551
236509
201525
197670
194447
187051
180215
175110
174867
243898
242792
241651
240455
239187
237826
236053
234647
231456
227303
221930
215512
208929
203302
198494
193740
187355
180648
175333
174919
243879
242734
241540
240263
238862
237268
235331
232874
229793
225977
221424
216295
210974
205643
200208
194377
187798
181015
175535
174969
243866
242695
241466
240141
238671
236987
234992
232578
229652
226146