/*--------------------------------*- C++ -*----------------------------------*\
  =========                 |
  \\      /  F ield         | OpenFOAM: The Open Source CFD Toolbox
   \\    /   O peration     | Website:  https://openfoam.org
    \\  /    A nd           | Version:  11
     \\/     M anipulation  |
\*---------------------------------------------------------------------------*/
FoamFile
{
    format      ascii;
    class       surfaceScalarField;
    location    "0.0002";
    object      phi;
}
// * * * * * * * * * * * * * * * * * * * * * * * * * * * * * * * * * * * * * //

dimensions      [1 0 -1 0 0 0 0];

internalField   nonuniform List<scalar> 
62564
(
0.000757055
-2.43948e-06
2.43712e-06
0.000804468
-7.4479e-06
7.41477e-06
0.000886267
-1.2867e-05
1.24135e-05
0.00100639
-1.87029e-05
1.73434e-05
0.00117002
-2.44331e-05
2.20035e-05
0.00138273
-2.8419e-05
2.61138e-05
0.00164872
-2.74471e-05
2.94888e-05
0.00196871
-1.66122e-05
3.22462e-05
0.00233601
1.17279e-05
3.47336e-05
0.00273691
6.33898e-05
3.73309e-05
0.00316354
0.000130679
4.00831e-05
0.00361817
0.000201043
4.22462e-05
0.00412259
0.000251606
4.24446e-05
0.00470427
0.000271157
3.96124e-05
0.0053779
0.000260764
3.37131e-05
0.00612766
0.000227016
2.60778e-05
0.00688091
0.000181968
1.87148e-05
0.00746534
0.000136042
1.28696e-05
0.00750191
9.48211e-05
8.67189e-06
4.94843e-05
4.60627e-06
0.000752207
-5.34345e-06
2.64236e-06
0.000799494
-1.64265e-05
8.10421e-06
0.000881392
-2.87878e-05
1.37095e-05
0.00100245
-4.27797e-05
1.9409e-05
0.00116908
-5.78062e-05
2.49323e-05
0.00138838
-7.06163e-05
2.97736e-05
0.00166616
-7.43796e-05
3.34859e-05
0.00200562
-5.96387e-05
3.62793e-05
0.00239794
-6.82969e-06
3.89215e-05
0.00281657
0.000105179
4.23096e-05
0.00324834
0.000252949
4.69224e-05
0.00368561
0.000415987
5.15065e-05
0.00416055
0.000528575
5.31794e-05
0.0047124
0.000568773
4.97809e-05
0.00536175
0.000545307
4.11995e-05
0.00609835
0.000469502
2.98371e-05
0.00684757
0.000371155
1.97661e-05
0.0074324
0.00027401
1.28378e-05
0.00746985
0.000189636
8.4492e-06
9.87321e-05
4.46917e-06
0.000741425
-9.04099e-06
3.04693e-06
0.000788046
-2.80552e-05
9.49292e-06
0.000869402
-5.01942e-05
1.64028e-05
0.000991328
-7.7023e-05
2.38868e-05
0.00116271
-0.000108818
3.15795e-05
0.00139443
-0.000141209
3.83161e-05
0.00169464
-0.000161283
4.26407e-05
0.00207511
-0.000159506
4.51488e-05
0.00252756
-9.72443e-05
4.76857e-05
0.00298399
0.000100597
5.23822e-05
0.00342866
0.000354686
6.13823e-05
0.00381498
0.000672994
7.2472e-05
0.00421533
0.000868319
7.82577e-05
0.00469669
0.000926327
7.38037e-05
0.00528721
0.000886904
5.83856e-05
0.00599355
0.000748825
3.68139e-05
0.00673471
0.000577485
2.04333e-05
0.00732177
0.000416745
1.18173e-05
0.00736501
0.000282699
7.56666e-06
0.00014583
4.02985e-06
0.000722991
-1.3544e-05
3.62495e-06
0.000767644
-4.26105e-05
1.15541e-05
0.000846328
-7.81228e-05
2.06177e-05
0.000966479
-0.000124402
3.14304e-05
0.00114088
-0.000184824
4.3739e-05
0.00138852
-0.000256486
5.48743e-05
0.00171663
-0.000308166
5.89484e-05
0.00216092
-8.79092e-05
5.9344e-05
-8.84774e-05
-8.78804e-05
-8.78774e-05
0.00274042
-0.00010349
6.09558e-05
-6.35621e-05
-0.000104288
-6.28123e-05
0.0032602
-1.72326e-05
6.65414e-05
2.48727e-05
-1.68977e-05
2.63966e-05
0.00375802
7.33608e-05
8.40697e-05
0.000118757
7.46638e-05
0.000121302
0.00403062
0.000230679
0.00011089
0.000276815
0.000234006
0.000284118
0.00429989
0.000337713
0.000125715
0.000308935
0.000343677
0.000316934
0.00467142
0.00136286
0.000121007
0.00516108
0.00132118
9.15968e-05
0.00582725
0.00108175
4.4936e-05
0.00656631
0.000804015
1.69942e-05
0.00716316
0.00056218
7.83118e-06
0.00721707
0.000371521
5.13394e-06
0.00018873
2.9445e-06
0.00069487
-1.83049e-05
4.28231e-06
0.000734855
-5.85348e-05
1.401e-05
0.000805936
-0.000110244
2.59802e-05
0.000916556
-0.000182631
4.1953e-05
0.0010849
-0.00028718
6.25132e-05
0.00134791
-0.000430852
8.19138e-05
0.00040039
-0.000126526
8.5306e-05
-0.000106186
-0.000125956
-0.000104373
0.000413348
0.000404038
0.000417361
0.000465521
-0.000128233
9.35545e-06
0.000645824
-0.000169318
9.8405e-06
-0.000544119
-0.000742514
0.000814734
-4.18644e-05
1.08095e-05
-0.000877442
0.000965107
4.489e-05
1.29917e-05
-0.00103293
0.00107171
0.000262791
1.94661e-05
-0.00104078
0.00104867
0.000409413
2.34361e-05
0.00462961
0.00042812
0.000207736
0.000460977
0.000434104
0.000473982
-0.00104938
-0.00109658
-0.00106149
-0.00110536
0.00491599
0.00194274
0.000151075
0.005552
0.00147349
4.61774e-05
0.00631372
0.00104191
1.49491e-06
0.00694072
0.00069785
-2.03655e-06
0.00701851
0.00044641
1.83575e-07
0.000222534
9.18709e-07
0.000655806
-2.20776e-05
4.9779e-06
0.000686537
-7.19247e-05
1.67167e-05
0.000740633
-0.000139308
3.24999e-05
0.000824109
-0.000240707
5.70117e-05
0.000961548
-0.000410154
9.67872e-05
0.000296054
-0.000152624
0.000149355
0.000299229
0.000299934
0.000302923
-0.000179708
-0.000153321
-0.000182033
0.000353481
-0.000176001
1.57406e-05
-0.000398557
0.000587826
-0.000326924
1.62209e-05
0.000156756
0.000437761
-0.000421648
5.02535e-06
-0.000901804
0.00143873
2.94108e-05
-0.000473164
-0.0010902
0.00112506
0.000473029
3.49648e-05
0.00445937
0.000717386
0.000214872
-0.00107621
-0.00110345
-0.00109598
-0.00111668
0.000657703
0.000733992
0.000674876
0.00509945
0.00192512
1.47943e-05
0.0059508
0.0012499
-4.1181e-05
0.00664895
0.000791894
-2.0957e-05
0.00677225
0.00048884
-7.18737e-06
0.000238345
-1.72479e-06
0.000607157
-2.28158e-05
5.30711e-06
0.000622606
-7.51854e-05
1.78817e-05
0.000645511
-0.000147041
3.47837e-05
0.000668117
-0.00025437
6.02749e-05
0.000179034
-9.75417e-05
9.95748e-05
0.000154366
0.000181637
0.000155636
-0.000113596
-9.77243e-05
-0.000114155
0.000196914
-0.000172283
1.65083e-05
0.000322563
-0.000321525
1.23248e-05
-0.00119309
0.000857031
0.0011855
3.94501e-05
0.00441419
0.000533791
-1.6922e-05
-0.000900447
-0.000767768
-0.000920226
-0.000771417
0.000451363
0.000544873
0.000460714
0.00547207
0.00126867
-5.1658e-05
0.00629539
0.000777132
-2.69061e-05
0.00648985
0.00047078
-1.10347e-05
0.000226225
-3.19559e-06
0.000555852
-1.92413e-05
5.32867e-06
0.00055367
-6.40664e-05
1.7764e-05
0.00054336
-0.000126999
3.39984e-05
0.000129337
-0.000223881
5.72646e-05
0.00012659
0.000131027
0.0001277
0.000127448
-9.69734e-05
1.04085e-05
0.000153613
0.000176683
-0.000207659
1.66761e-05
-0.000126517
-2.08676e-08
2.3736e-06
5.76578e-05
-7.76823e-08
8.77853e-08
2.22092e-06
9.09669e-05
-0.000684321
0.000753684
5.41e-06
-0.000656672
0.000794152
0.000530401
4.14257e-06
0.00498166
0.00109056
-3.05001e-05
-0.000933354
-0.000914556
-0.000954237
-0.000919686
0.00593471
0.000644919
-2.27103e-05
0.00620626
0.000383764
-1.09497e-05
0.000181502
-3.38431e-06
0.000511915
-1.11547e-05
5.14782e-06
0.000492767
-3.74557e-05
1.68317e-05
0.000449343
-7.54872e-05
3.12793e-05
9.63663e-05
-0.000137393
5.07458e-05
8.52041e-05
9.72202e-05
8.58803e-05
8.82381e-05
-7.65873e-05
9.3221e-06
8.3194e-05
0.000112448
-0.000113799
5.82071e-06
-1.28175e-06
-1.33681e-06
2.68024e-06
2.78095e-06
0.000133519
4.09834e-08
-2.03363e-05
0.00101648
-8.14616e-07
-1.1755e-06
1.19692e-05
1.48449e-05
-3.13755e-06
-2.0308e-06
1.23217e-05
1.55269e-05
-3.13749e-06
-2.01549e-05
0.00101727
-1.13488e-06
-7.80189e-07
1.48912e-05
1.20712e-05
-1.95308e-06
1.21816e-05
1.54902e-05
-6.6328e-07
-2.66043e-06
6.99572e-07
0.000124947
-2.70103e-07
6.17533e-05
1.22852e-06
-0.000588591
0.000601451
0.000668719
-7.22761e-07
-0.000503521
0.00450301
0.000669332
-2.46411e-05
-0.000774653
-0.000707001
-0.000777427
-0.000707914
0.00560328
0.000378374
-1.82215e-05
0.00596041
0.000218043
-9.48853e-06
0.000102097
-3.1322e-06
0.000486135
2.64381e-10
4.96777e-06
0.000455758
9.84092e-10
1.59403e-05
0.000388581
1.84644e-09
2.8656e-05
6.54898e-05
2.00233e-09
4.34529e-05
6.21583e-05
6.57908e-05
6.25158e-05
5.31736e-05
4.03683e-05
-2.84168e-05
7.14666e-06
2.34989e-06
1.79483e-09
5.76863e-05
-2.06575e-05
3.04017e-07
0.0010191
-6.28757e-07
-1.29387e-06
1.22314e-05
1.47264e-05
-3.34297e-06
-1.92646e-06
1.20444e-05
1.55618e-05
-1.22814e-07
1.00208e-07
0.0010021
2.06723e-05
-3.02177e-07
0.00100228
-7.22372e-07
-3.28338e-07
0.00101868
-1.0555e-06
1.19856e-05
1.48741e-05
-1.98259e-06
-3.27884e-06
1.55766e-05
1.22381e-05
2.19334e-06
-2.39232e-06
-6.01893e-07
0.000156068
-0.000365701
0.000334014
0.000168383
-2.61911e-06
0.00418085
-1.80058e-08
-2.04051e-05
-0.000607612
-0.000590198
-0.000608298
-0.000590819
0.00539726
-2.19032e-08
-1.48039e-05
0.0058101
-2.38485e-08
-8.06409e-06
-2.09921e-08
-2.85042e-06
0.000486135
1.11553e-05
4.9678e-06
0.000455758
3.7458e-05
1.59404e-05
0.000388581
7.54908e-05
2.86562e-05
6.21613e-05
0.0001374
4.34531e-05
6.54838e-05
6.25225e-05
6.57834e-05
-5.57588e-09
3.36371e-05
2.84283e-05
6.56441e-06
1.1165e-09
2.1728e-06
1.2181e-07
9.01207e-05
-2.00204e-05
-3.13266e-06
0.00101529
-1.02844e-06
-8.54341e-07
1.49131e-05
1.18299e-05
-1.7999e-06
1.23738e-05
1.56674e-05
-4.70997e-07
2.10426e-05
0.000999392
2.04724e-05
2.06646e-05
0.000999741
-1.23173e-06
-2.06153e-06
0.00101625
-7.40085e-07
1.4806e-05
1.21199e-05
-3.0785e-06
1.53513e-05
1.21481e-05
-1.49294e-07
-2.26436e-06
5.0378e-07
0.000124335
-1.69111e-10
0.000298825
-0.000168395
-2.58463e-06
0.00418088
-0.00066933
-2.04059e-05
-0.000590229
-0.000607615
-0.000590848
-0.000608303
0.00539728
-0.000378403
-1.4805e-05
0.00581011
-0.000218086
-8.06405e-06
-0.000102135
-2.85021e-06
0.000511916
1.92421e-05
5.14794e-06
0.000492768
6.40687e-05
1.6832e-05
0.000449343
0.000127003
3.12796e-05
8.52021e-05
0.00022389
5.07448e-05
9.63669e-05
8.5881e-05
9.72189e-05
-5.31803e-05
6.07768e-05
7.65919e-05
8.26114e-06
-6.82377e-07
6.38287e-07
-2.5957e-06
0.000125082
-7.35529e-07
-7.07991e-07
0.00101845
-8.87435e-07
1.20333e-05
1.49866e-05
-1.89651e-06
-3.33978e-06
1.54321e-05
1.19561e-05
-1.89904e-06
-1.35059e-06
0.00101775
-5.531e-07
1.45774e-05
1.2128e-05
-3.2305e-06
1.56377e-05
1.21944e-05
-7.84594e-07
-7.12414e-07
0.000124961
-2.108e-06
2.81908e-07
0.000118464
6.5471e-07
0.000365719
0.000455335
-0.000668737
-1.90277e-06
0.00450305
-0.00109059
-2.46441e-05
-0.000706994
-0.000774663
-0.000707906
-0.000777436
0.00560333
-0.000644962
-1.82234e-05
0.00596045
-0.000383792
-9.48626e-06
-0.000181528
-3.13185e-06
0.000555855
2.28166e-05
5.32893e-06
0.000553672
7.5188e-05
1.77648e-05
0.000543362
0.000147044
3.39998e-05
0.000126573
0.000254372
5.72678e-05
0.00012936
0.000127676
0.000131053
-8.31955e-05
0.000111112
9.69622e-05
9.98348e-06
-0.00011245
0.000207664
1.16007e-05
-9.84246e-05
-2.46385e-07
6.1023e-05
1.28364e-06
2.19755e-06
-7.08495e-07
-2.41857e-06
0.000156108
-9.88126e-08
3.48702e-07
-2.25533e-06
0.000124312
-2.16544e-06
3.00022e-07
0.000118803
6.86169e-07
0.000503534
-0.000553027
0.00071801
-0.000530408
7.82962e-07
0.00498173
-0.00126869
-3.05072e-05
-0.000914573
-0.000933372
-0.0009197
-0.000954251
0.00593477
-0.00077716
-2.27071e-05
0.00620632
-0.000470804
-1.09434e-05
-0.000226239
-3.37995e-06
0.000607162
2.20787e-05
5.3075e-06
0.00062261
7.19279e-05
1.78827e-05
0.000645513
0.000139313
3.47855e-05
0.000668114
0.000240711
6.02766e-05
0.000154344
0.000410153
9.95742e-05
0.000179072
0.000155603
0.000181675
-9.75464e-05
-0.000113606
-9.77212e-05
-0.000114164
-0.000153616
0.000132615
0.000172259
1.50481e-05
0.000684336
0.000604089
-0.00118554
1.54184e-05
0.00441426
-0.00192517
-1.69347e-05
-0.00076779
-0.000900454
-0.000771429
-0.000920227
0.000533788
0.000451377
0.000544877
0.000460732
0.00547215
-0.00124994
-5.16536e-05
0.00629543
-0.000791869
-2.69027e-05
0.00648991
-0.000488887
-1.10289e-05
-0.000238346
-3.19073e-06
0.000655814
1.83063e-05
4.9783e-06
0.000686543
5.85389e-05
1.67179e-05
0.000740635
0.000110251
3.25019e-05
0.000824102
0.000182642
5.70147e-05
0.000961518
0.000287201
9.67904e-05
0.000299166
0.000430875
0.000149351
-0.000152637
-0.000179718
-0.000153326
-0.000182039
0.000296107
0.000302862
0.000299989
-0.000322578
0.000450444
0.000175977
2.16467e-05
-0.000319596
0.00032693
7.28528e-06
-0.000948132
0.00149356
-0.000473032
3.39895e-05
0.00445944
-0.00194279
0.000214853
0.000717422
0.000657695
0.000734033
0.000674876
-0.00110346
-0.00107625
-0.00111668
-0.00109602
0.00509952
-0.00147353
1.47905e-05
0.00595088
-0.00104193
-4.11812e-05
0.00664906
-0.000697853
-2.09546e-05
0.00677232
-0.000446406
-7.18333e-06
-0.000222525
-1.71928e-06
0.000694881
1.3545e-05
4.28283e-06
0.000734866
4.26139e-05
1.40112e-05
0.000805949
7.81285e-05
2.59821e-05
0.000916572
0.00012441
4.19561e-05
0.00108493
0.000184832
6.25191e-05
0.00134795
0.000256494
8.19215e-05
0.000413361
0.000308164
8.53086e-05
-0.000126562
-0.000106159
-0.000125987
-0.000104337
0.0004004
0.000417369
0.000404052
-0.000156759
0.000462755
0.000128241
1.09945e-05
-0.000437769
0.00084843
0.000169312
1.33062e-05
-0.000539771
-0.000773795
0.000775545
4.18759e-05
8.8145e-06
-0.000840981
0.000939143
-4.48781e-05
1.08333e-05
-0.00111883
0.00145423
-0.000262825
2.00267e-05
0.000473194
-0.00106874
0.00108185
-0.000409449
2.51267e-05
0.00462971
-0.00136289
0.000207726
0.000428136
0.000460983
0.000434136
0.000473991
-0.00109661
-0.00104942
-0.00110538
-0.00106151
0.00491605
-0.00132119
0.00015107
0.00555206
-0.0010818
4.61769e-05
0.00631376
-0.00080402
1.49484e-06
0.00694076
-0.000562179
-2.03631e-06
0.00701856
-0.000371515
1.86942e-07
-0.00018872
9.23137e-07
0.000723004
9.04175e-06
3.62533e-06
0.000767659
2.80575e-05
1.1555e-05
0.000846345
5.0198e-05
2.0619e-05
0.0009665
7.70278e-05
3.14321e-05
0.0011409
0.000108823
4.37413e-05
0.00138855
0.000141214
5.4877e-05
0.00171666
0.000161285
5.89491e-05
0.00216096
0.000159508
5.93429e-05
-8.7925e-05
-8.84654e-05
-8.78945e-05
-8.78707e-05
0.0027405
9.72572e-05
6.09496e-05
-0.000103484
-6.35899e-05
-0.000104275
-6.28475e-05
0.00326029
-0.000100605
6.65335e-05
-1.72144e-05
2.48496e-05
-1.686e-05
2.63661e-05
0.00375813
-0.000354715
8.40603e-05
7.33837e-05
0.000118738
7.46898e-05
0.000121295
0.00403066
-0.00067303
0.000110879
0.000230738
0.000276806
0.000234056
0.00028413
0.00429994
-0.000868376
0.000125706
0.000337759
0.000308918
0.000343726
0.000316909
0.00467148
-0.000926368
0.000121004
0.00516115
-0.000886914
9.15932e-05
0.00582728
-0.000748831
4.49337e-05
0.00656635
-0.000577487
1.69945e-05
0.0071632
-0.000416743
7.83269e-06
0.00721711
-0.000282694
5.13666e-06
-0.000145822
2.94626e-06
0.00074144
5.34393e-06
3.04724e-06
0.000788063
1.64279e-05
9.4936e-06
0.000869421
2.879e-05
1.64037e-05
0.000991351
4.27826e-05
2.3888e-05
0.00116274
5.78092e-05
3.15808e-05
0.00139447
7.06191e-05
3.83171e-05
0.00169468
7.43815e-05
4.26407e-05
0.00207515
5.96405e-05
4.51465e-05
0.00252761
6.83118e-06
4.76813e-05
0.00298405
-0.000105191
5.23758e-05
0.00342873
-0.000252971
6.13744e-05
0.00381505
-0.000416018
7.24649e-05
0.00421537
-0.000528596
7.82517e-05
0.00469671
-0.000568788
7.37996e-05
0.00528723
-0.000545319
5.83836e-05
0.00599357
-0.000469506
3.68133e-05
0.00673469
-0.000371116
2.04336e-05
0.0073218
-0.000274053
1.18193e-05
0.00736505
-0.000189632
7.56824e-06
-9.87289e-05
4.03261e-06
0.000752224
2.43971e-06
2.64262e-06
0.000799512
7.44857e-06
8.10475e-06
0.000881412
1.28681e-05
1.37103e-05
0.00100247
1.87043e-05
1.94099e-05
0.00116911
2.44346e-05
2.49331e-05
0.00138841
2.84204e-05
2.97741e-05
0.0016662
2.74481e-05
3.34857e-05
0.00200567
1.66128e-05
3.62778e-05
0.00239799
-1.1729e-05
3.89184e-05
0.00281662
-6.33968e-05
4.23049e-05
0.00324838
-0.000130691
4.69168e-05
0.00368564
-0.000201056
5.15012e-05
0.00416058
-0.000251616
5.31755e-05
0.00471242
-0.000271165
4.97776e-05
0.00536177
-0.000260767
4.11983e-05
0.00609833
-0.000226984
2.98363e-05
0.00684764
-0.00018201
1.97661e-05
0.00743243
-0.000136041
1.28395e-05
0.00746989
-9.48191e-05
8.45248e-06
-4.94835e-05
4.47229e-06
0.000757072
2.43736e-06
0.000804486
7.41526e-06
0.000886288
1.24141e-05
0.00100641
1.73441e-05
0.00117005
2.20041e-05
0.00138276
2.61142e-05
0.00164875
2.94885e-05
0.00196875
3.22449e-05
0.00233606
3.47311e-05
0.00273696
3.73271e-05
0.00316358
4.00788e-05
0.0036182
4.2242e-05
0.00412261
4.24413e-05
0.00470429
3.96098e-05
0.00537792
3.37109e-05
0.00612772
2.60768e-05
0.00688094
1.87154e-05
0.00746537
1.28716e-05
0.00750194
8.67383e-06
4.60862e-06
0.000759933
-2.31848e-06
4.73326e-06
0.000807383
-7.04386e-06
1.43945e-05
0.000889179
-1.21116e-05
2.40708e-05
0.00100918
-1.74992e-05
3.35668e-05
0.00117257
-2.27442e-05
4.24807e-05
0.00138494
-2.63052e-05
5.03444e-05
0.00165067
-2.50873e-05
5.67664e-05
0.00197072
-1.42301e-05
6.19994e-05
0.00233842
1.4119e-05
6.66987e-05
0.00273977
6.61267e-05
7.15772e-05
0.00316631
0.000134313
7.67453e-05
0.00361995
0.000205961
8.067e-05
0.00412272
0.000257364
8.07982e-05
0.0047028
0.000276635
7.5244e-05
0.00537559
0.000264755
6.40446e-05
0.00612563
0.000228814
4.97303e-05
0.00687992
0.00018224
3.57333e-05
0.00746534
0.000135762
2.46538e-05
0.0075025
9.45588e-05
1.66909e-05
4.93771e-05
8.89189e-06
0.000755368
-5.11007e-06
5.11347e-06
0.000802765
-1.56107e-05
1.56675e-05
0.000884765
-2.72276e-05
2.64528e-05
0.00100582
-4.02262e-05
3.73373e-05
0.00117224
-5.40923e-05
4.78245e-05
0.00139115
-6.58811e-05
5.70095e-05
0.00166878
-6.92585e-05
6.40782e-05
0.00200877
-5.48608e-05
6.94868e-05
0.00240234
-2.33567e-06
7.45303e-05
0.0028224
0.000110545
8.08016e-05
0.00325479
0.000260962
8.91913e-05
0.00369063
0.000428208
9.7439e-05
0.0041626
0.000543619
0.000100184
0.00471134
0.00058316
9.361e-05
0.00535902
0.000555407
7.75532e-05
0.00609615
0.000473448
5.63743e-05
0.00684705
0.000371067
3.75277e-05
0.00743314
0.000273001
2.45364e-05
0.00747123
0.000188832
1.632e-05
9.84713e-05
8.68652e-06
0.00074514
-8.69154e-06
5.85805e-06
0.000792066
-2.68506e-05
1.82174e-05
0.000873806
-4.77668e-05
3.13738e-05
0.000996015
-7.28194e-05
4.54814e-05
0.00116724
-0.000102259
5.9876e-05
0.00139828
-0.00013242
7.24363e-05
0.00169801
-0.000151894
8.06673e-05
0.0020798
-0.000152058
8.5761e-05
0.00253541
-9.14175e-05
9.07793e-05
0.00299557
0.000107916
9.93748e-05
0.00344285
0.000367423
0.000115949
0.00382638
0.000696806
0.000136615
0.0042201
0.000899443
0.000147161
0.00469489
0.000956073
0.000138336
0.00528118
0.000907452
0.000109616
0.00598984
0.000753998
6.87724e-05
0.0067346
0.000575123
3.81719e-05
0.00732367
0.000413733
2.25228e-05
0.00736748
0.000280923
1.47918e-05
0.000145052
7.9966e-06
0.000727561
-1.3143e-05
6.92389e-06
0.000772907
-4.11613e-05
2.20102e-05
0.000852707
-7.50626e-05
3.91113e-05
0.000974057
-0.000118638
5.93464e-05
0.00114882
-0.000174835
8.23618e-05
0.00139453
-0.000240878
0.000102944
0.00172164
-0.000293226
0.000111331
0.0021692
-8.82377e-05
0.000113852
-8.7814e-05
-8.46048e-05
-8.37959e-05
0.00275618
-0.000105265
0.000116172
-6.2945e-05
-0.000102206
-5.99321e-05
0.00328483
-1.74864e-05
0.000125758
2.66753e-05
-1.51064e-05
2.9362e-05
0.0037916
7.44781e-05
0.000159696
0.000121874
7.88145e-05
0.000126176
0.00405882
0.000236684
0.000213994
0.000289607
0.000242065
0.000295357
0.00431384
0.000349811
0.000243518
0.000322366
0.000356106
0.000332529
0.00466961
0.00141695
0.000232256
0.00514785
0.0013587
0.000175797
0.00582234
0.00108469
8.11753e-05
0.00656918
0.000796112
2.92267e-05
0.00716784
0.000556513
1.46568e-05
0.00722185
0.000368357
1.03878e-05
0.000187467
6.10541e-06
0.000700475
-1.79887e-05
8.17992e-06
0.000741817
-5.74027e-05
2.67106e-05
0.000815346
-0.0001078
4.94892e-05
0.000929107
-0.000177795
8.03251e-05
0.00109883
-0.000278257
0.000122066
0.00135883
-0.000417145
0.000164462
0.00040312
-0.000127578
0.000167928
-0.00010259
-0.000121384
-9.51803e-05
0.000417567
0.000404988
0.000417264
-1.92207e-05
0.000469005
-0.000128653
2.77149e-05
-1.88525e-05
0.000652392
-0.000173638
2.75136e-05
-0.000546936
-1.95442e-05
-0.000748525
0.000822949
-4.14015e-05
2.75835e-05
-2.3684e-05
-0.000886869
0.000978503
4.51281e-05
3.38868e-05
-3.51671e-05
-0.00104765
0.00109075
0.000266429
5.30622e-05
-0.00105532
-4.47156e-05
0.00106296
0.000421038
6.91235e-05
0.00462761
0.000438341
0.000433573
0.00047682
0.000442665
0.000489021
-0.00106037
-0.00110427
-0.00105829
-0.00110363
0.00488296
0.00198988
0.000320248
0.00554745
0.00146181
7.34568e-05
0.00632387
0.00102457
-6.62598e-06
0.00695068
0.000689881
-4.34967e-06
0.0070268
0.000442555
1.06509e-06
0.000220935
2.27814e-06
0.000662567
-2.18696e-05
9.32029e-06
0.000695674
-7.12695e-05
3.11828e-05
0.000754842
-0.000138223
6.04366e-05
0.000846995
-0.00023967
0.000107253
0.000991322
-0.000411731
0.000193235
0.000297617
-0.000157148
0.000341527
0.000301776
0.000299866
0.000300597
-0.000182605
-0.000154038
-0.00018232
-3.35005e-05
0.00035574
-0.000177503
4.84437e-05
-3.22458e-05
-0.000400269
0.000575908
-0.000316167
4.91186e-05
0.000157916
-1.06252e-05
0.00042358
-0.000408894
1.59902e-05
-5.57801e-05
-0.00088154
0.00142108
8.74789e-05
-0.000479727
-6.52737e-05
-0.00110114
0.00113877
0.000474272
0.000106283
0.00438868
0.000724926
0.000521181
-0.00108373
-0.0011041
-0.00107681
-0.00109722
0.000662587
0.000718983
0.000665201
0.00510089
0.00193175
-7.00361e-05
0.00597589
0.00125186
-0.000132393
0.00666665
0.000790128
-4.4526e-05
0.00678502
0.000486835
-1.34747e-05
0.000237449
-3.12039e-06
0.00061438
-2.27909e-05
9.98713e-06
0.000632396
-7.52957e-05
3.35693e-05
0.000660503
-0.00014782
6.52798e-05
0.000690793
-0.000257389
0.000114804
0.000184613
-0.000100547
0.000200831
0.000158601
0.000188978
0.000160861
-0.000116075
-9.88778e-05
-0.000114863
-3.49413e-05
0.000200576
-0.000176577
5.2542e-05
-2.45872e-05
0.000313864
-0.00031442
3.75955e-05
-6.62766e-05
-0.00115745
0.000858693
0.00115407
0.000103957
0.00442019
0.000541394
-0.000132587
-0.000896948
-0.000755129
-0.000888085
-0.000746214
0.000459977
0.000541976
0.000462644
0.00549965
0.00128222
-0.000144059
0.00631557
0.000780422
-5.55368e-05
0.00650445
0.000470902
-2.10521e-05
0.000226043
-5.76182e-06
0.000562944
-1.93466e-05
1.00584e-05
0.000562959
-6.46746e-05
3.34626e-05
0.000556971
-0.000128998
6.40401e-05
0.000133826
-0.000229603
0.000109423
0.000130827
0.000136852
0.000132764
-2.14036e-05
0.000131737
-9.98533e-05
3.15991e-05
-3.43206e-05
0.000157063
0.000174851
-0.000208064
5.35392e-05
-0.000131051
-0.000118976
-5.22426e-07
6.05776e-06
0.000167572
-0.000187835
2.13987e-06
4.20468e-07
7.93907e-06
0.000262478
-1.04832e-05
-0.000659953
0.000725609
1.60086e-05
-0.000658104
-2.85025e-07
0.000802363
0.000538575
-3.0236e-06
0.0050026
0.00110216
-7.9531e-05
-0.000945481
-0.000918341
-0.000945348
-0.000918086
0.00595237
0.000649556
-4.69069e-05
0.00621986
0.000385079
-2.1385e-05
0.000181738
-6.0893e-06
0.00051851
-1.12589e-05
9.75103e-06
0.00050084
-3.80086e-05
3.18266e-05
0.000459919
-7.7218e-05
5.91228e-05
9.99475e-05
-0.000142239
9.67694e-05
8.75086e-05
0.000101166
8.9158e-05
-1.82225e-05
9.15492e-05
-7.96337e-05
2.80813e-05
8.57799e-05
-1.14882e-05
0.000112064
-0.000114036
1.75626e-05
9.60392e-08
-5.06882e-06
-0.000281527
1.0559e-05
9.30357e-06
0.000393469
2.00549e-07
-3.01946e-05
0.00189731
-4.16098e-06
-7.15559e-06
2.72598e-05
3.34494e-05
-8.03374e-06
-6.94866e-06
2.831e-05
3.47538e-05
-7.77574e-06
-3.03767e-05
0.00189873
-7.19977e-06
-4.32335e-06
3.36153e-05
2.73459e-05
-6.76579e-06
2.82239e-05
3.47242e-05
-1.12616e-06
-0.000261107
-9.42167e-06
7.59924e-06
0.000374614
-0.000121232
-8.39159e-07
0.000178512
3.23955e-08
3.40046e-06
-0.000568657
0.000601057
0.000655548
-8.94407e-06
-0.000508298
0.0045168
0.000677193
-5.9267e-05
-0.000777374
-0.000707369
-0.000777199
-0.000707626
0.00561732
0.000381938
-3.8149e-05
0.00597222
0.00021924
-1.87373e-05
0.000102322
-5.75924e-06
0.000492295
2.97783e-10
9.43429e-06
0.000462769
1.11073e-09
3.02242e-05
0.000396426
2.1801e-09
5.42317e-05
6.71546e-05
2.62855e-09
8.21653e-05
6.34665e-05
6.78052e-05
6.43549e-05
-1.4031e-05
5.53296e-05
4.09538e-05
-2.95928e-05
2.11596e-05
-0.000119018
6.01774e-06
-3.89962e-07
0.000167524
-3.0036e-05
7.27618e-07
0.0019003
-4.24257e-06
-7.38703e-06
2.72487e-05
3.32517e-05
-7.72536e-06
-6.47605e-06
2.83899e-05
3.5009e-05
-1.88808e-08
8.06386e-08
0.00188373
3.01003e-05
-3.03182e-07
0.00188412
-4.14987e-06
-7.80823e-07
0.00190103
-7.14971e-06
2.70375e-05
3.35009e-05
-6.55694e-06
-7.85132e-06
3.50591e-05
2.85628e-05
-0.000314676
3.47945e-06
-6.04042e-06
-1.23182e-06
0.000459083
6.84511e-06
-0.000359716
0.000329727
0.00016613
-1.20786e-05
0.00418956
-1.82334e-08
-4.39239e-05
-0.000607702
-0.00059013
-0.000607772
-0.000590295
0.00540856
-2.17097e-08
-3.04959e-05
0.00582055
-2.1702e-08
-1.59577e-05
-1.9464e-08
-5.31718e-06
0.000492296
1.12595e-05
9.43435e-06
0.000462769
3.8011e-05
3.02243e-05
0.000396426
7.72222e-05
5.42319e-05
6.34685e-05
0.000142246
8.21651e-05
6.71495e-05
6.43632e-05
6.77982e-05
-1.28612e-05
-5.55883e-09
3.39686e-05
2.96041e-05
1.91343e-05
-0.000186091
-2.25895e-06
7.93199e-06
5.96521e-07
0.000264935
-2.97774e-05
-7.70083e-06
0.00189493
-7.07255e-06
-4.37178e-06
3.35547e-05
2.71339e-05
-6.58111e-06
2.82563e-05
3.47464e-05
-2.47588e-07
3.05096e-05
0.0018787
2.98746e-05
3.03149e-05
0.00187841
-7.19264e-06
-6.81e-06
0.00189503
-4.21524e-06
3.33191e-05
2.70299e-05
-7.784e-06
3.49057e-05
2.86309e-05
-0.000254979
7.06667e-08
-7.9631e-06
1.15619e-06
0.000371213
6.2154e-06
-2.25759e-10
0.000295227
-0.000166143
-1.04751e-05
0.0041896
-0.000677201
-4.3924e-05
-0.00059016
-0.000607702
-0.000590324
-0.000607774
0.00540858
-0.000381967
-3.04974e-05
0.00582056
-0.00021928
-1.59559e-05
-0.000102358
-5.31476e-06
0.000518511
1.93474e-05
9.75124e-06
0.000500841
6.46771e-05
3.18273e-05
0.000459919
0.000129003
5.91234e-05
8.75063e-05
0.000229615
9.67683e-05
9.99454e-05
8.91585e-05
0.000101164
-1.6098e-05
-5.53368e-05
6.2032e-05
7.96397e-05
2.43674e-05
-7.96791e-07
-0.000260867
7.54123e-06
-9.79548e-06
0.000374478
-6.25179e-07
-4.10213e-06
0.00190085
-6.92551e-06
2.69992e-05
3.35241e-05
-6.46332e-06
-7.83829e-06
3.4861e-05
2.8276e-05
-6.45675e-06
-7.32512e-06
0.00189843
-4.03024e-06
3.31666e-05
2.74008e-05
-7.79656e-06
3.47521e-05
2.80985e-05
-0.000261473
-7.49418e-06
-7.59462e-06
0.000382685
-0.000234815
-3.44589e-06
1.16316e-06
0.000345467
7.51402e-07
6.82821e-06
0.000359732
0.000450551
-0.000655561
-1.33094e-05
0.00451684
-0.0011022
-5.9266e-05
-0.000707373
-0.00077738
-0.000707636
-0.000777199
0.00561741
-0.000649629
-3.8155e-05
0.00597226
-0.000385067
-1.87339e-05
-0.000181761
-5.75465e-06
0.000562948
2.27918e-05
1.00588e-05
0.000562962
7.52985e-05
3.3464e-05
0.000556975
0.000147824
6.40425e-05
0.00013081
0.000257389
0.000109428
0.000133853
0.00013274
0.000136881
-8.57829e-05
-1.97995e-05
0.000114547
9.98429e-05
3.00473e-05
-2.32363e-05
-0.000112065
0.000208068
3.58297e-05
-0.000100724
-0.000123016
-1.15785e-06
0.000178493
2.51069e-06
-0.000315194
3.47638e-06
-1.29317e-06
-6.04352e-06
0.000459905
-0.000254191
7.68994e-08
1.03798e-06
-7.92986e-06
0.000370007
-0.000234054
-3.58447e-06
1.25477e-06
0.000344389
7.93793e-07
0.000508301
-0.000543468
-1.37929e-06
0.000715437
-0.000538583
-1.64732e-06
0.00500267
-0.00128225
-7.9541e-05
-0.000918362
-0.0009455
-0.000918105
-0.000945354
0.00595238
-0.00078045
-4.69002e-05
0.00621992
-0.000470927
-2.13751e-05
-0.000226057
-6.07779e-06
0.000614386
2.18707e-05
9.98786e-06
0.0006324
7.12728e-05
3.35713e-05
0.000660505
0.000138228
6.52829e-05
0.000690791
0.000239674
0.000114807
0.00015858
0.00041173
0.000200825
0.000184659
0.000160829
0.000189016
-0.000100556
-0.000116095
-9.88717e-05
-0.000114867
-3.03186e-05
-0.000157066
0.0001333
0.000176554
4.75259e-05
-3.21942e-05
0.00065997
0.000592261
-0.00115411
4.93093e-05
0.00442029
-0.0019318
-0.000132609
-0.000755165
-0.000896964
-0.00074623
-0.000888078
0.000541392
0.000459984
0.000541984
0.000462658
0.00549974
-0.00125186
-0.000144058
0.0063156
-0.000790103
-5.55319e-05
0.00650452
-0.000486884
-2.10429e-05
-0.000237451
-5.75301e-06
0.000662575
1.79897e-05
9.32122e-06
0.000695681
5.74066e-05
3.11851e-05
0.000754846
0.000107807
6.04407e-05
0.00084699
0.000177805
0.000107259
0.000991292
0.000278276
0.000193244
0.00030171
0.000417151
0.000341531
-0.000157169
-0.000182612
-0.000154041
-0.00018231
0.000297667
0.000300539
0.000299915
-4.3758e-05
-0.000313879
0.000441114
0.000177479
6.58071e-05
-1.47449e-05
-0.000310062
0.000316175
2.23404e-05
-6.53336e-05
-0.000920428
0.00146234
-0.000474289
0.000101764
0.00438876
-0.00198992
0.000521147
0.000724955
0.000662594
0.000719018
0.000665212
-0.0011041
-0.0010838
-0.00109722
-0.00107685
0.00510094
-0.00146182
-7.005e-05
0.00597596
-0.00102459
-0.000132395
0.00666676
-0.000689884
-4.4523e-05
0.00678508
-0.000442551
-1.34695e-05
-0.000220927
-3.11276e-06
0.000700487
1.3144e-05
8.18065e-06
0.00074183
4.11645e-05
2.67125e-05
0.00081536
7.50681e-05
4.94924e-05
0.000929124
0.000118645
8.033e-05
0.00109886
0.000174842
0.000122074
0.00135887
0.000240884
0.000164468
0.000417573
0.000293225
0.000167923
-0.000127602
-0.000102569
-0.000121405
-9.51458e-05
0.000403127
0.000417276
0.000404998
-0.000157921
-2.27526e-05
0.000467407
0.000128666
3.38487e-05
-2.64615e-05
-0.000423586
0.000834178
0.00017364
3.78025e-05
-0.000543118
-1.7249e-05
-0.000760494
0.000762795
4.1384e-05
2.48438e-05
-2.1464e-05
-0.000828387
0.000926608
-4.51391e-05
3.11482e-05
-4.02899e-05
-0.00110631
0.00144354
-0.00026646
6.11915e-05
0.000479755
-0.00108236
-5.35766e-05
0.00109606
-0.000421059
8.34713e-05
0.00462767
-0.00141699
0.000433553
0.000438366
0.000476831
0.000442698
0.000489036
-0.0011043
-0.0010604
-0.00110365
-0.00105831
0.00488301
-0.00135872
0.000320237
0.0055475
-0.0010847
7.34518e-05
0.00632391
-0.000796117
-6.62627e-06
0.00695068
-0.00055647
-4.34728e-06
0.00702685
-0.000368395
1.06958e-06
-0.000187458
2.28321e-06
0.000727575
8.69227e-06
6.92456e-06
0.000772922
2.68528e-05
2.20118e-05
0.000852725
4.77704e-05
3.91137e-05
0.000974079
7.2824e-05
5.93498e-05
0.00114884
0.000102263
8.2366e-05
0.00139457
0.000132425
0.000102948
0.00172167
0.000151896
0.000111332
0.00216924
0.000152062
0.000113854
-8.82542e-05
-8.78085e-05
-8.46206e-05
-8.37834e-05
0.00275626
9.14322e-05
0.000116165
-0.000105263
-6.29737e-05
-0.00010221
-5.99509e-05
0.00328491
-0.000107923
0.000125744
-1.74534e-05
2.66422e-05
-1.50791e-05
2.93344e-05
0.00379167
-0.00036743
0.000159675
7.44951e-05
0.000121856
7.88518e-05
0.000126167
0.00405885
-0.00069686
0.000213974
0.000236722
0.000289611
0.000242112
0.000295371
0.00431389