/*--------------------------------*- C++ -*----------------------------------*\
  =========                 |
  \\      /  F ield         | OpenFOAM: The Open Source CFD Toolbox
   \\    /   O peration     | Website:  https://openfoam.org
    \\  /    A nd           | Version:  11
     \\/     M anipulation  |
\*---------------------------------------------------------------------------*/
FoamFile
{
    format      ascii;
    class       volScalarField;
    location    "0.0002";
    object      residualTracer;
}
// * * * * * * * * * * * * * * * * * * * * * * * * * * * * * * * * * * * * * //

dimensions      [0 0 0 0 0 0 0];

internalField   nonuniform List<scalar> 
21740
(
0
0
0
0
0
0
0
0
0
0
0
0
0
0
0
0
0
0
0
0
0
0
0
0
0
0
0
0
0
0
0
0
0
0
0
0
0
0
0
0
0
0
0
0
0
0
0
0
0
0
0
0
0
0
0
0
0
0
0
0
0
0
0
0
0
0
0
0
0
0
0
0
0
0
0
0
0
0
0
0
0
0
0
0
0
0
0
0
0
0
0
0
0
0
0
0
0
0
0
0
0
0
0
0
0
0
0
0
0
0
0
0
0
0
0
0
0
0
0
0
0
0
0
0
0
0
0
0
0
0
0
0
0
0
0
0
0
0
0
0
0
0
0
0
0
0
0
0
0
0
0
0
0
0
0
0
0
0
0
0
0
0
0
0
0
0
0
0
0
0
0
0
0
0
0
0
0
0
0
0
0
0
0
0
0
0
0
0
0
0
0
0
0
0
0
0
0
0
0
0
0
0
0
0
0
0
0
0
0
0
0
0
0
0
0
0
0
0
0
0
0
0
0
0
0
0
0
0
0
0
0
0
0
0
0
0
0
0
0
0
0
0
0
0
0
0
0
0
0
0
0
0
0
0
0
0
0
0
0
0
0
0
0
0
0
0
0
0
0
0
0
0
0
0
0
0
0
0
0
0
0
0
0
0
0
0
0
0
0
0
0
0
0
0
0
0
0
0
0
0
0
0
0
0
0
0
0
0
0
0
0
0
0
0
0
0
0
0
0
0
0
0
0
0
0
0
0
0
0
0
0
0
0
0
0
0
0
0
0
0
0
0
0
0
0
0
0
0
0
0
0
0
0
0
0
0
0
0
0
0
0
0
0
0
0
0
0
0
0
0
0
0
0
0
0
0
0
0
0
0
0
0
0
0
0
0
0
0
0
0
0
0
0
0
0
0
0
0
0
0
0
0
0
0
0
0
0
0
0
0
0
0
0
0
0
0
0
0
0
0
0
0
0
0
0
0
0
0
0
0
0
0
0
0
0
0
0
0
0
0
0
0
0
0
0
0
0
0
0
0
0
0
0
0
0
0
0
0
0
0
0
0
0
0
0
0
0
0
0
0
0
0
0
0
0
0
0
0
0
0
0
0
0
0
0
0
0
0
0
0
0
0
0
0
0
0
0
0
0
0
0
0
0
0
0
0
0
0
0
0
0
0
0
0
0
0
0
0
0
0
0
0
0
0
0
0
0
0
0
0
0
0
0
0
0
0
0
0
0
0
0
0
0
0
0
0
0
0
0
0
0
0
0
0
0
0
0
0
0
0
0
0
0
0
0
0
0
0
0
0
0
0
0
0
0
0
0
0
0
0
0
0
0
0
0
0
0
0
0
0
0
0
0
0
0
0
0
0
0
0
0
0
0
0
0
0
0
0
0
0
0
0
0
0
0
0
0
0
0
0
0
0
0
0
0
0
0
0
0
0
0
0
0
0
0
0
0
0
0
0
0
0
0
0
0
0
0
0
0
0
0
0
0
0
0
0
0
0
0
0
0
0
0
0
0
0
0
0
0
0
0
0
0
0
0
0
0
0
0
0
0
0
0
0
0
0
0
0
0
0
0
0
0
0
0
0
0
0
0
0
0
0
0
0
0
0
0
0
0
0
0
0
0
0
0
0
0
0
0
0
0
0
0
0
0
0
0
0
0
0
0
0
0
0
0
0
0
0
0
0
0
0
0
0
0
0
0
0
0
0
0
0
0
0
0
0
0
0
0
0
0
0
0
0
0
0
0
0
0
0
0
0
0
0
0
0
0
0
0
0
0
0
0
0
0
0
0
0
0
0
0
0
0
0
0
0
0
0
0
0
0
0
0
0
0
0
0
0
0
0
0
0
0
0
0
0
0
0
0
0
0
0
0
0
0
0
0
0
0
0
0
0
0
0
0
0
0
0
0
0
0
0
0
0
0
0
0
0
0
0
0
0
0
0
0
0
0
0
0
0
0
0
0
0
0
0
0
0
0
0
0
0
0
0
0
0
0
0
0
0
0
0
0
0
0
0
0
0
0
0
0
0
0
0
0
0
0
0
0
0
0
0
0
0
0
0
0
0
0
0
0
0
0
0
0
0
0
0
0
0
0
0
0
0
0
0
0
0
0
0
0
0
0
0
0
0
0
0
0
0
0
0
0
0
0
0
0
0
0
0
0
0
0
0
0
0
0
0
0
0
0
0
0
0
0
0
0
0
0
0
0
0
0
0
0
0
0
0
0
0
0
0
0
0
0
0
0
0
0
0
0
0
0
0
0
0
0
0
0
0
0
0
0
0
0
0
0
0
0
0
0
0
0
0
0
0
0
0
0
0
0
0
0
0
0
0
0
0
0
0
0
0
0
0
0
0
0
0
0
0
0
0
0
0
0
0
0
0
0
0
0
0
0
0
0
0
0
0
0
0
0
0
0
0
0
0
0
0
0
0
0
0
0
0
0
0
0
0
0
0
0
0
0
0
0
0
0
0
0
0
0
0
0
0
0
0
0
0
0
0
0
0
0
0
0
0
0
0
0
0
0
0
0
0
0
0
0
0
0
0
0
0
0
0
0
0
0
0
0
0
0
0
0
0
0
2.07296e-12
7.9136e-14
1.08345e-15
0
0
3.4845e-12
4.0922e-13
5.60795e-14
1.05437e-14
2.607e-15
8.18336e-16
3.16311e-16
0
0
0
0
0
0.609488
0.0184403
2.21516e-05
7.33609e-08
1.44009e-16
3.81912e-13
0.445649
0.0530137
0.00923374
0.00220274
0.000679892
0.000260654
0
0
0
0
0
0
0
0.0468611
0.0292727
0.0049183
0.00116698
0.000359718
0.00013739
0
0
0
0
0
0
0
0
0.00273336
0.00324656
0.00119916
0.000283687
8.74441e-05
3.32828e-05
0
0
0
0
0
0
0
0.382326
0.38223
0
0
3.27454e-05
0.000423159
9.36391e-05
2.80465e-05
1.05563e-05
0
0
0
0
0
0
0.38228
0.396704
0.396695
0.382342
0
4.45291e-07
1.24168e-05
3.34234e-06
1.07936e-06
4.13965e-07
0
0
0
0
0
0
0.382353
0.396697
0.396698
0.382271
0
2.50272e-08
1.24286e-05
3.38378e-06
1.10989e-06
4.28989e-07
0
0
0
0
0
0
0.382255
0.382346
0
0
4.67685e-06
0.000423632
9.43513e-05
2.83447e-05
1.0685e-05
0
0
0
0
0
0
0
0
0
0
0.000361852
0.0012003
0.000286885
8.84834e-05
3.36913e-05
0
0
0
0
0
0
0.0114938
0.0292653
0.0049206
0.00116736
0.000359809
0.00013742
0
0
0
0
0
0.609491
0.017206
3.72793e-05
4.11806e-14
0.445646
0.0530068
0.00923275
0.00220254
0.000679837
0.000260634
0
0
0
0
0
0
0
0
1.63495e-09
1.61755e-11
3.11462e-13
9.77802e-15
3.35273e-19
3.48741e-12
4.10871e-13
5.63074e-14
1.05868e-14
2.61767e-15
8.21694e-16
3.1761e-16
0
0
0
0
0
0
0
0
0
0
0
0
0
0
0
0
0
0
0
0
0
0
0
0
0
0
0
0
0
0
0
0
0
0
0
0
0
0
0
0
0
0
0
0
0
0
0
0
0
0
0
0
0
0
0
0
0
0
0
0
0
0
0
0
0
0
0
0
0
0
0
0
0
0
0
0
0
0
0
0
0
0
0
0
0
0
0
0
0
0
0
0
0
0
0
0
0
0
0
0
0
0
0
0
0
0
0
0
0
0
0
0
0
0
0
0
0
0
0
0
0
0
0
0
0
0
0
0
0
0
0
0
0
0
0
0
0
0
0
0
0
0
0
0
0
0
0
0
0
0
0
0
0
0
0
0
0
0
0
0
0
0
0
0
0
0
0
0
1.75895e-15
1.60721e-09
5.18192e-11
2.71095e-12
1.03712e-13
1.64099e-12
1.95812e-13
2.65328e-14
4.98378e-15
1.23375e-15
3.87599e-16
1.49796e-16
0
0
0
0
0
0.698488
0.706096
0.745994
0.888105
0.346853
0.424278
0.603052
0.0656385
0.0112236
0.00266319
0.000820487
0.000314243
0
0
0
0
0
0.620966
0.85516
0.708197
0.066631
0.0106225
0.00246438
0.000752211
0.000286313
0
0
0
0
0
0.660331
0.433475
0.432891
0.778933
0.0887716
0.00293882
0.000687785
0.000210412
7.98617e-05
0
0
0
0
0
0.509592
0.432174
0.637246
0.63719
0.436561
0.432901
0.0796765
0.00103689
0.000228145
6.80839e-05
2.55796e-05
0
0
0
0
0
0.433494
0.637224
0.650432
0.650416
0.637224
0.435025
0.000920621
2.88608e-05
7.79447e-06
2.51799e-06
9.65176e-07
0
0
0
0
0
0.432883
0.6373
0.650441
0.650434
0.637273
0.436543
4.3471e-05
2.89979e-05
7.9634e-06
2.59801e-06
1.00032e-06
0
0
0
0
0
0.436658
0.637253
0.637245
0.442283
0.432311
0.0102438
0.00104119
0.000231432
6.92605e-05
2.6059e-05
0
0
0
0
0
0.623167
0.431107
0.434874
0.436565
0.432367
0.08201
0.00295251
0.000701194
0.000214811
8.1595e-05
0
0
0
0
0
0.621886
0.747746
0.0666236
0.0106648
0.00247395
0.000755104
0.000287411
0
0
0
0
0
0.698496
0.842557
0.879077
0.589586
0.603052
0.0656388
0.0112239
0.0026633
0.000820528
0.00031426
0
0
0
0
0
0
0
0
0.000130029
2.53278e-06
7.44827e-08
3.69789e-09
1.97822e-10
1.29243e-12
1.33548e-13
1.83322e-14
3.46642e-15
8.61025e-16
2.70921e-16
1.0475e-16
0
0
0
0
0
0
0
0
0
0
0
0
0
0
0
0
0
0
0
0
0
0
0
0
0
0
0
0
0
0
0
0
0
0
0
0
0
0
0
0
0
0
0
0
0
0
0
0
0
0
0
0
0
0
0
0
0
0
0
0
0
0
0
0
0
0
0
0
0
0
0
0
0
0
0
0
0
0
0
0
0
0
0
0
0
0
0
0
0
0
0
0
0
0
0
0
0
0
0
0
0
0
0
0
0
0
0
0
0
0
0
0
0
0
0
0
0
0
0
0
0
0
0
0
0
0
0
0
0
0
0
0
0
0
0
0
0
0
0
0
0
0
0
0
0
0
0
0
0
0
0
0
0
0
0
0
0
0
0
0
0
0
0
0
0
0
0
0
0
1.39508e-12
1.19156e-13
1.11307e-14
8.6164e-16
6.01015e-14
1.01168e-14
1.59884e-15
3.24665e-16
8.36761e-17
2.67855e-17
1.04021e-17
0
0
0
0
0
0.695062
0.72337
0.777972
0.886181
0.344532
0.434796
0.618478
0.0635327
0.0106403
0.00250486
0.00076928
0.000294207
0
0
0
0
0
0.637557
0.963158
0.788648
0.0650505
0.0101359
0.00233259
0.000709807
0.000269756
0
0
0
0
0
0.676951
0.701515
0.701039
0.901498
0.0887787
0.00269157
0.000626659
0.000191334
7.25219e-05
0
0
0
0
0
0.495905
0.699689
0.798485
0.798462
0.706194
0.699757
0.0792457
0.000921499
0.000200906
5.97385e-05
2.23994e-05
0
0
0
0
0
0.701556
0.798466
0.807993
0.807984
0.798465
0.704699
0.000812597
2.45001e-05
6.62236e-06
2.14088e-06
8.20043e-07
0
0
0
0
0
0.701032
0.798535
0.808021
0.80802
0.798518
0.707368
3.65232e-05
2.46182e-05
6.71068e-06
2.18076e-06
8.37233e-07
0
0
0
0
0
0.706235
0.798478
0.798481
0.711275
0.699893
0.00957843
0.000926112
0.00020324
6.05574e-05
2.27305e-05
0
0
0
0
0
0.624305
0.699421
0.704692
0.707384
0.699687
0.0821639
0.00270577
0.000638757
0.000195317
7.40942e-05
0
0
0
0
0
0.640416
0.853899
0.0650496
0.0101749
0.00234134
0.00071244
0.000270752
0
0
0
0
0
0.695066
0.9217
0.975248
0.629768
0.618493
0.063533
0.0106405
0.00250496
0.000769317
0.000294223
0
0
0
0
0
0
0
0
1.15879e-07
5.35628e-09
2.97936e-10
2.57105e-11
2.49954e-12
4.03882e-14
6.17158e-15
9.99522e-16
2.05264e-16
5.3192e-17
1.70692e-17
6.63334e-18
0
0
0
0
0
0
0
0
0
0
0
0
0
0
0
0
0
0
0
0
0
0
0
0
0
0
0
0
0
0
0
0
0
0
0
0
0
0
0
0
0
0
0
0
0
0
0
0
0
0
0
0
0
0
0
0
0
0
0
0
0
0
0
0
0
0
0
0
0
0
0
0
0
0
0
0
0
0
0
0
0
0
0
0
0
0
0
0
0
0
0
0
0
0
0
0
0
0
0
0
0
0
0
0
0
0
0
0
0
0
0
0
0
0
0
0
0
0
0
0
0
0
0
0
0
0
0
0
0
0
0
0
0
0
0
0
0
0
0
0
0
0
0
0
0
0
0
0
0
0
0
0
0
0
0
0
0
0
0
0
0
0
0
0
0
0
0
0
0
8.72505e-16
1.13475e-16
1.43453e-17
1.56395e-18
9.5155e-16
2.35031e-16
4.44391e-17
9.91109e-18
2.68401e-18
8.79484e-19
3.43668e-19
0
0
0
0
0
0.692028
0.719238
0.76633
0.862296
0.322829
0.42236
0.61147
0.0604086
0.00991847
0.00231574
0.000708763
0.000270654
0
0
0
0
0
0.632465
0.966186
0.781137
0.0600058
0.0091104
0.00207648
0.000629564
0.00023886
0
0
0
0
0
0.653398
0.847306
0.848987
0.903336
0.0800842
0.00224454
0.000518751
0.000158065
5.98347e-05
0
0
0
0
0
0.473564
0.847717
0.89589
0.895888
0.858078
0.851244
0.0680497
0.000682625
0.00014717
4.36257e-05
1.63301e-05
0
0
0
0
0
0.847338
0.895877
0.90293
0.902917
0.895849
0.853044
0.000662804
1.78515e-05
4.79139e-06
1.54593e-06
5.91352e-07
0
0
0
0
0
0.849177
0.895942
0.902959
0.902972
0.895915
0.858556
2.94831e-05
1.79121e-05
4.84484e-06
1.57175e-06
6.02676e-07
0
0
0
0
0
0.858118
0.895873
0.895882
0.8633
0.844229
0.00796603
0.000685386
0.000148671
4.41805e-05
1.65592e-05
0
0
0
0
0
0.5956
0.851208
0.853051
0.858618
0.844198
0.0724202
0.00225368
0.000528167
0.000161188
6.10719e-05
0
0
0
0
0
0.635892
0.851706
0.0599985
0.00913268
0.00208133
0.000630999
0.000239399
0
0
0
0
0
0.692036
0.921276
0.973833
0.609084
0.611487
0.060412
0.0099192
0.00231593
0.000708827
0.000270678
0
0
0
0
0
0
0
0
5.75323e-11
5.13728e-12
4.4246e-13
5.02315e-14
6.01194e-15
5.42395e-16
1.36397e-16
2.64502e-17
5.96867e-18
1.62563e-18
5.34059e-19
2.08842e-19
0
0
0
0
0
0
0
0
0
0
0
0
0
0
0
0
0
0
0
0
0
0
0
0
0
0
0
0
0
0
0
0
0
0
0
0
0
0
0
0
0
0
0
0
0
0
0
0
0
0
0
0
0
0
0
0
0
0
0
0
0
0
0
0
0
0
0
0
0
0
0
0
0
0
0
0
0
0
0
0
0
0
0
0
0
0
0
0
0
0
0
0
0
0
0
0
0
0
0
0
0
0
0
0
0
0
0
0
0
0
0
0
0
0
0
0
0
0
0
0
0
0
0
0
0
0
0
0
0
0
0
0
0
0
0
0
0
0
0
0
0
0
0
0
0
0
0
0
0
0
0
0
0
0
0
0
0
0
0
0
0
0
0
0
0
0
0
0
0
2.45219e-19
4.55901e-20
7.20851e-21
9.85863e-22
1.08785e-17
3.58901e-18
7.89057e-19
1.91098e-19
5.41435e-20
1.81328e-20
7.12871e-21
0
0
0
0
0
0.687382
0.717368
0.752712
0.832877
0.999929
0.999937
0.999965
0.300529
0.410367
0.606134
0.05839
0.00947312
0.00220028
0.000671866
0.000256285
0
0
0
0
0
0.629798
0.96244
0.999933
0.99871
0.995251
0.995591
0.996796
0.999666
0.999988
0.768678
0.0568439
0.00850024
0.00192641
0.000582696
0.000220829
0
0
0
0
0
0.628492
0.999935
0.996231
0.973255
0.941695
0.938546
0.961301
0.987845
0.999411
0.894567
0.0730844
0.0019856
0.000457388
0.000139225
5.2664e-05
0
0
0
0
0
0.448427
0.998715
0.97328
0.96048
0.954318
0.954311
0.960452
0.944143
0.992549
0.999891
0.0570776
0.000561592
0.000120447
3.56507e-05
1.33331e-05
0
0
0
0
0
0.999931
0.995251
0.941715
0.954324
0.957382
0.957367
0.954291
0.937493
0.976985
0.999174
0.000535375
1.42964e-05
3.82975e-06
1.23497e-06
4.72124e-07
0
0
0
0
0
0.999939
0.995587
0.938635
0.954347
0.957387
0.957392
0.954319
0.942216
0.973661
0.998805
2.38378e-05
1.43406e-05
3.87332e-06
1.25646e-06
4.81596e-07
0
0
0
0
0
0.999968
0.996803
0.961335
0.96048
0.954312
0.954313
0.960367
0.938797
0.986327
0.999697
0.00650189
0.000563653
0.000121698
3.61232e-05
1.35299e-05
0
0
0
0
0
0.564221
0.999669
0.987857
0.944171
0.937504
0.942249
0.938773
0.965835
0.996858
0.999974
0.0627581
0.00199239
0.000465612
0.00014196
5.37492e-05
0
0
0
0
0
0.630883
0.999991
0.999412
0.992549
0.976999
0.973698
0.986325
0.996856
0.999907
0.841637
0.0568341
0.00851472
0.00192943
0.000583569
0.000221153
0
0
0
0
0
0.687393
0.914207
0.963325
0.999891
0.999173
0.998811
0.999696
0.999974
0.584634
0.606155
0.0583962
0.00947425
0.00220056
0.000671955
0.000256318
0
0
0
0
0
0
0
0
2.06487e-14
2.47492e-15
2.89698e-16
4.05218e-17
5.53843e-18
5.9035e-18
2.03333e-18
4.56773e-19
1.11775e-19
3.18328e-20
1.06861e-20
4.20398e-21
0
0
0
0
0
0
0
0
0
0
0
0
0
0
0
0
0
0
0
0
0
0
0
0
0
0
0
0
0
0
0
0
0
0
0
0
0
0
0
0
0
0
0
0
0
0
0
0
0
0
0
0
0
0
0
0
0
0
0
0
0
0
0
0
0
0
0
0
0
0
0
0
0
0
0
0
0
0
0
0
0
0
0
0
0
0
0
0
0
0
0
0
0
0
0
0
0
0
0
0
0
0
0
0
0
0
0
0
0
0
0
0
0
0
0
0
0
0
0
0
0
0
0
0
0
0
0
0
0
0
0
0
0
0
0
0
0
0
0
0
0
0
0
0
0
0
0
0
0
0
0
0
0
0
0
0
0
0
0
0
0
0
0
0
0
0
0
0
0
4.28275e-23
1.12083e-23
2.44211e-24
4.21359e-25
1.08403e-19
4.2745e-20
1.04283e-20
2.67833e-21
7.85151e-22
2.67457e-22
1.05682e-22
0
0
0
0
0
0.675827
0.703981
0.747023
0.812746
0.31395
0.412891
0.606786
0.0577128
0.00934812
0.002169
0.000661804
0.000252317
0
0
0
0
0
0.619655
0.961149
0.774902
0.0569615
0.00852551
0.00193188
0.000584021
0.000221239
0
0
0
0
0
0.634783
0.992088
0.99351
0.900164
0.0716375
0.00203584
0.000468594
0.000142492
5.38732e-05
0
0
0
0
0
0.454268
0.983157
0.984032
0.984022
0.984286
0.992605
0.0602267
0.000643929
0.000138053
4.07861e-05
1.52431e-05
0
0
0
0
0
0.992093
0.98404
0.984524
0.984515
0.984022
0.994655
0.00051948
1.55961e-05
4.2049e-06
1.3582e-06
5.19434e-07
0
0
0
0
0
0.9935
0.984043
0.984524
0.984513
0.984024
0.994741
2.18779e-05
1.56455e-05
4.24968e-06
1.37989e-06
5.28968e-07
0
0
0
0
0
0.984312
0.98404
0.984028
0.984701
0.993757
0.00660481
0.000646203
0.000139365
4.1268e-05
1.54417e-05
0
0
0
0
0
0.574447
0.992602
0.994678
0.994734
0.993762
0.0631465
0.00204273
0.000476847
0.000145227
5.49569e-05
0
0
0
0
0
0.621041
0.847225
0.056949
0.00854041
0.00193498
0.000584914
0.00022157
0
0
0
0
0
0.67584
0.908905
0.959381
0.597189
0.606807
0.0577196
0.00934935
0.00216929
0.000661896
0.000252353
0
0
0
0
0
0
0
0
4.24858e-30
6.54081e-19
9.78713e-20
1.79549e-20
3.78946e-21
5.84864e-20
2.38882e-20
5.92989e-21
1.53613e-21
4.52298e-22
1.54389e-22
6.10412e-23
0
0
0
0
0
0
0
0
0
0
0
0
0
0
0
0
0
0
0
0
0
0
0
0
0
0
0
0
0
0
0
0
0
0
0
0
0
0
0
0
0
0
0
0
0
0
0
0
0
0
0
0
0
0
0
0
0
0
0
0
0
0
0
0
0
0
0
0
0
0
0
0
0
0
0
0
0
0
0
0
0
0
0
0
0
0
0
0
0
0
0
0
0
0
0
0
0
0
0
0
0
0
0
0
0
0
0
0
0
0
0
0
0
0
0
0
0
0
0
0
0
0
0
0
0
0
0
0
0
0
0
0
0
0
0
0
0
0
0
0
0
0
0
0
0
0
0
0
0
0
0
0
0
0
0
0
0
0
0
0
0
0
0
0
0
0
0
0
0
7.16662e-27
2.63768e-27
7.22303e-28
1.44358e-28
8.84016e-22
3.98448e-22
1.05567e-22
2.84499e-23
8.58024e-24
2.96507e-24
1.17669e-24
0
0
0
0
0
0.668808
0.693508
0.749871
0.819593
0.331582
0.419711
0.609327
0.0578015
0.00937573
0.00217642
0.000663996
0.000253095
0
0
0
0
0
0.611911
0.961733
0.784707
0.0579787
0.0087202
0.00197935
0.000598542
0.000226731
0
0
0
0
0
0.649274
0.998378
0.998751
0.907387
0.0744436
0.00214651
0.000494563
0.000150359
5.6843e-05
0
0
0
0
0
0.466134
0.996538
0.995486
0.995478
0.996847
0.998518
0.0661882
0.000717576
0.000154794
4.5797e-05
1.7125e-05
0
0
0
0
0
0.998381
0.99549
0.995493
0.995486
0.995475
0.998954
0.000530307
1.65281e-05
4.49832e-06
1.45754e-06
5.57981e-07
0
0
0
0
0
0.998752
0.995492
0.995493
0.995486
0.995476
0.998948
2.10798e-05
1.65754e-05
4.54141e-06
1.47854e-06
5.67243e-07
0
0
0
0
0
0.996861
0.995489
0.99548
0.996758
0.998845
0.00703571
0.000719941
0.000156102
4.62734e-05
1.73204e-05
0
0
0
0
0
0.593966
0.998518
0.998962
0.998951
0.998843
0.0682
0.00215355
0.000502899
0.000153118
5.79346e-05
0
0
0
0
0
0.614866
0.855521
0.0579643
0.00873579
0.00198263
0.000599487
0.000227081
0
0
0
0
0
0.668823
0.908418
0.961856
0.615423
0.609351
0.0578086
0.00937696
0.00217671
0.000664087
0.00025313
0
0
0
0
0
0
0
0
1.18803e-33
1.58696e-22
2.66689e-23
5.74514e-24
1.69395e-24
4.76737e-22
2.20752e-22
5.93024e-23
1.60938e-23
4.87148e-24
1.68635e-24
6.69579e-25
0
0
0
0
0
0
0
0
0
0
0
0
0
0
0
0
0
0
0
0
0
0
0
0
0
0
0
0
0
0
0
0
0
0
0
0
0
0
0
0
0
0
0
0
0
0
0
0
0
0
0
0
0
0
0
0
0
0
0
0
0
0
0
0
0
0
0
0
0
0
0
0
0
0
0
0
0
0
0
0
0
0
0
0
0
0
0
0
0
0
0
0
0
0
0
0
0
0
0
0
0
0
0
0
0
0
0
0
0
0
0
0
0
0
0
0
0
0
0
0
0
0
0
0
0
0
0
0
0
0
0
0
0
0
0
0
0
0
0
0
0
0
0
0
0
0
0
0
0
0
0
0
0
0
0
0
0
0
0
0
0
0
0
0
0
0
0
0
0
1.40732e-30
5.62974e-31
1.57828e-31
3.17361e-32
5.51643e-24
2.80231e-24
8.04994e-25
2.28236e-25
7.09273e-26
2.48843e-26
9.9171e-27
0
0
0
0
0
0.666635
0.691398
0.749706
0.813976
0.333101
0.421041
0.610058
0.0577149
0.00935509
0.00217105
0.000662159
0.000252326
0
0
0
0
0
0.610374
0.961544
0.786069
0.0578802
0.00870819
0.00197741
0.000597972
0.00022649
0
0
0
0
0
0.649508
0.99985
0.999891
0.908488
0.0746184
0.00213131
0.000491577
0.000149506
5.65247e-05
0
0
0
0
0
0.464434
0.999546
0.99906
0.999057
0.999578
0.999898
0.0646906
0.000702506
0.000152078
4.50613e-05
1.68593e-05
0
0
0
0
0
0.999851
0.999063
0.999043
0.999039
0.999054
0.999873
0.000492892
1.57559e-05
4.30482e-06
1.39676e-06
5.34961e-07
0
0
0
0
0
0.999892
0.999064
0.999043
0.999039
0.999055
0.999866
1.9097e-05
1.5795e-05
4.34367e-06
1.41602e-06
5.43486e-07
0
0
0
0
0
0.99958
0.999061
0.999058
0.999549
0.999883
0.00669931
0.000704607
0.000153283
4.55039e-05
1.70414e-05
0
0
0
0
0
0.593965
0.999892
0.999873
0.999869
0.999883
0.0677519
0.00213767
0.000499593
0.000152162
5.75763e-05
0
0
0
0
0
0.613552
0.856762
0.0578647
0.00872184
0.00198025
0.000598786
0.000226791
0
0
0
0
0
0.666649
0.907481
0.962054
0.617772
0.610086
0.0577226
0.00935639
0.00217136
0.000662254
0.000252361
0
0
0
0
0
0
0
0
2.29482e-37
3.11919e-26
5.76668e-27
1.24105e-27
3.80636e-28
2.97497e-24
1.54356e-24
4.48391e-25
1.27859e-25
3.98535e-26
1.40024e-26
5.58277e-27
0
0
0
0
0
0
0
0
0
0
0
0
0
0
0
0
0
0
0
0
0
0
0
0
0
0
0
0
0
0
0
0
0
0
0
0
0
0
0
0
0
0
0
0
0
0
0
0
0
0
0
0
0
0
0
0
0
0
0
0
0
0
0
0
0
0
0
0
0
0
0
0
0
0
0
0
0
0
0
0
0
0
0
0
0
0
0
0
0
0
0
0
0
0
0
0
0
0
0
0
0
0
0
0
0
0
0
0
0
0
0
0
0
0
0
0
0
0
0
0
0
0
0
0
0
0
0
0
0
0
0
0
0
0
0
0
0
0
0
0
0
0
0
0
0
0
0
0
0
0
0
0
0
0
0
0
0
0
0
0
0
0
0
0
0
0
0
0
0
2.48449e-34
9.36686e-35
2.39914e-35
4.3395e-36
2.6194e-26
1.46946e-26
4.5815e-27
1.37524e-27
4.42475e-28
1.5798e-28
6.32435e-29
0
0
0
0
0
0.664778
0.689867
0.748237
0.809399
0.332841
0.420789
0.609871
0.0574206
0.00928693
0.00215272
0.000656117
0.000249918
0
0
0
0
0
0.608634
0.961002
0.786081
0.0574772
0.00862779
0.0019571
0.000591468
0.00022394
0
0
0
0
0
0.647573
1
0.999996
0.908678
0.0738376
0.00209769
0.00048347
0.000146977
5.55514e-05
0
0
0
0
0
0.462187
0.999977
0.999888
0.999887
0.999976
1
0.0635572
0.000687592
0.000148767
4.40656e-05
1.64828e-05
0
0
0
0
0
1
0.999889
0.999885
0.999884
0.999886
0.999996
0.000472924
1.52461e-05
4.16636e-06
1.35167e-06
5.17594e-07
0
0
0
0
0
0.999995
0.999889
0.999885
0.999884
0.999886
0.999994
1.81087e-05
1.528e-05
4.20254e-06
1.36986e-06
5.25667e-07
0
0
0
0
0
0.999975
0.999888
0.999887
0.99997
0.999999
0.00650064
0.000689498
0.000149898
4.4484e-05
1.66553e-05
0
0
0
0
0
0.591785
1
0.999994
0.999996
0.999998
0.0667961
0.00210345
0.000491177
0.000149534
5.6564e-05
0
0
0
0
0
0.611706
0.856897
0.0574611
0.00863965
0.00195953
0.000592156
0.000224193
0
0
0
0
0
0.664789
0.906397
0.961365
0.617683
0.609902
0.0574288
0.0092883
0.00215304
0.000656217
0.000249956
0
0
0
0
0
0
0
0
3.26926e-41
5.06998e-30
1.01615e-30
2.01133e-31
4.81329e-32
1.41282e-26
8.06208e-27
2.53684e-27
7.65106e-28
2.46782e-28
8.82148e-29
3.53269e-29
0
0
0
0
0
0
0
0
0
0
0
0
0
0
0
0
0
0
0
0
0
0
0
0
0
0
0
0
0
0
0
0
0
0
0
0
0
0
0
0
0
0
0
0
0
0
0
0
0
0
0
0
0
0
0
0
0
0
0
0
0
0
0
0
0
0
0
0
0
0
0
0
0
0
0
0
0
0
0
0
0
0
0
0
0
0
0
0
0
0
0
0
0
0
0
0
0
0
0
0
0
0
0
0
0
0
0
0
0
0
0
0
0
0
0
0
0
0
0
0
0
0
0
0
0
0
0
0
0
0
0
0
0
0
0
0
0
0
0
0
0
0
0
0
0
0
0
0
0
0
0
0
0
0
0
0
0
0
0
0
0
0
0
0
0
0
0
0
0
3.80365e-38
1.37669e-38
3.03105e-39
4.33479e-40
9.52344e-29
5.77628e-29
1.96658e-29
6.30913e-30
2.11368e-30
7.69943e-31
3.09672e-31
0
0
0
0
0
0.662844
0.688237
0.746977
0.80725
0.332848
0.420554
0.60945
0.0570114
0.00918965
0.00212585
0.000647215
0.000246382
0
0
0
0
0
0.606681
0.960398
0.78614
0.0570465
0.00853033
0.00193053
0.000582701
0.000220469
0
0
0
0
0
0.645913
1
0.999997
0.908953
0.0732314
0.00206937
0.000475846
0.000144472
5.45646e-05
0
0
0
0
0
0.460762
0.999999
0.999994
0.999995
1
1.00001
0.0632596
0.000681759
0.000146999
4.34585e-05
1.62392e-05
0
0
0
0
0
1
0.999991
0.999995
0.999997
0.999997
1
0.000467852
1.50976e-05
4.11781e-06
1.33457e-06
5.10696e-07
0
0
0
0
0
0.999999
0.999992
0.999995
0.999997
0.999997
1
1.78581e-05
1.51289e-05
4.15264e-06
1.35225e-06
5.1857e-07
0
0
0
0
0
0.999999
0.999995
0.999996
1
1
0.00644882
0.000683559
0.000148084
4.38613e-05
1.64057e-05
0
0
0
0
0
0.590146
1
1
1
1
0.0663395
0.00207473
0.000483289
0.000146943
5.55431e-05
0
0
0
0
0
0.609801
0.85713
0.0570317
0.00854102
0.00193268
0.000583309
0.000220691
0
0
0
0
0
0.66285
0.905347
0.96055
0.617611
0.609481
0.05702
0.00919111
0.0021262
0.000647322
0.000246423
0
0
0
0
0
0
0
0
4.38731e-45
7.63325e-34
1.62244e-34
2.78633e-35
4.36296e-36
5.13869e-29
3.16111e-29
1.08451e-29
3.49305e-30
1.17264e-30
4.27559e-31
1.72008e-31
0
0
0
0
0
0
0
0
0
0
0
0
0
0
0
0
0
0
0
0
0
0
0
0
0
0
0
0
0
0
0
0
0
0
0
0
0
0
0
0
0
0
0
0
0
0
0
0
0
0
0
0
0
0
0
0
0
0
0
0
0
0
0
0
0
0
0
0
0
0
0
0
0
0
0
0
0
0
0
0
0
0
0
0
0
0
0
0
0
0
0
0
0
0
0
0
0
0
0
0
0
0
0
0
0
0
0
0
0
0
0
0
0
0
0
0
0
0
0
0
0
0
0
0
0
0
0
0
0
0
0
0
0
0
0
0
0
0
0
0
0
0
0
0
0
0
0
0
0
0
0
0
0
0
0
0
0
0
0
0
0
0
0
0
0
0
0
0
0
6.27626e-42
2.21739e-42
3.9537e-43
3.87198e-44
2.67926e-31
1.76853e-31
6.71172e-32
2.32774e-32
8.13909e-33
3.02388e-33
1.22125e-33
0
0
0
0
0
0.662476
0.687357
0.745456
0.808311
0.33153
0.419161
0.607517
0.0562871
0.00901679
0.00207896
0.000631935
0.000240383
0
0
0
0
0
0.604548
0.959693
0.7851
0.0559189
0.00828968
0.00186801
0.000562734
0.000212711
0
0
0
0
0
0.643147
1
0.999997
0.908743
0.0717719
0.00198102
0.000453665
0.000137489
5.18742e-05
0
0
0
0
0
0.459436
1
0.999952
0.999961
1
1
0.0633953
0.000649302
0.000138863
4.09101e-05
1.52618e-05
0
0
0
0
0
1
0.999925
0.99996
0.999974
0.999982
1
0.000477715
1.4656e-05
3.96918e-06
1.28266e-06
4.90151e-07
0
0
0
0
0
1
0.999926
0.999961
0.999974
0.999982
1
1.84024e-05
1.46825e-05
4.00175e-06
1.29955e-06
4.97712e-07
0
0
0
0
0
1
0.999955
0.999962
1
1
0.00652524
0.000650915
0.000139861
4.12857e-05
1.54178e-05
0
0
0
0
0
0.587495
1
1
1
1
0.0655837
0.00198582
0.000460645
0.00013981
5.27944e-05
0
0
0
0
0
0.607753
0.856611
0.0559048
0.00829882
0.00186981
0.000563236
0.000212893
0
0
0
0
0
0.662478
0.904971
0.959483
0.615826
0.607539
0.0562951
0.0090182
0.0020793
0.000632042
0.000240424
0
0
0
0
0
0
0
0
6.44507e-49
1.22827e-37
2.75996e-38
3.92397e-39
3.28143e-40
1.44773e-31
9.66631e-32
3.69167e-32
1.28451e-32
4.49877e-33
1.67262e-33
6.75622e-34
0
0
0
0
0
0
0
0
0
0
0
0
0
0
0
0
0
0
0
0
0
0
0
0
0
0
0
0
0
0
0
0
0
0
0
0
0
0
0
0
0
0
0
0
0
0
0
0
0
0
0
0
0
0
0
0
0
0
0
0
0
0
0
0
0
0
0
0
0
0
0
0
0
0
0
0
0
0
0
0
0
0
0
0
0
0
0
0
0
0
0
0
0
0
0
0
0
0
0
0
0
0
0
0
0
0
0
0
0
0
0
0
0
0
0
0
0
0
0
0
0
0
0
0
0
0
0
0
0
0
0
0
0
0
0
0
0
0
0
0
0
0
0
0
0
0
0
0
0
0
0
0
0
0
0
0
0
0
0
0
0
0
0
0
0
0
0
0
0
1.42186e-45
4.62412e-46
6.31871e-47
4.18592e-48
7.31249e-34
5.3125e-34
2.18733e-34
7.95007e-35
2.83793e-35
1.06263e-35
4.29756e-36
0
0
0
0
0
0.6677
0.694465
0.74241
0.805566
0.315048
0.412944
0.604521
0.0555185
0.00881707
0.00202479
0.000614403
0.000233533
0
0
0
0
0
0.608213
0.958702
0.776397
0.0538442
0.00787809
0.00176585
0.000530879
0.000200484
0
0
0
0
0
0.627903
0.999978
0.999984
0.903177
0.0678838
0.001783
0.000406904
0.000123211
4.64564e-05
0
0
0
0
0
0.447567
0.999948
0.999761
0.999803
0.99997
0.999997
0.0567335
0.000517722
0.000109915
3.2331e-05
1.20498e-05
0
0
0
0
0
0.999958
0.999629
0.999815
0.999877
0.999905
0.999993
0.00044386
1.20371e-05
3.22742e-06
1.03938e-06
3.96601e-07
0
0
0
0
0
0.999975
0.999634
0.999816
0.999875
0.999905
0.999992
1.77562e-05
1.20559e-05
3.25517e-06
1.05425e-06
4.03295e-07
0
0
0
0
0
0.999941
0.999772
0.999808
0.999964
0.999996
0.00591826
0.000518957
0.000110771
3.26651e-05
1.21905e-05
0
0
0
0
0
0.568485
0.99999
0.999982
0.999981
0.99999
0.059976
0.00178702
0.000413264
0.000125332
4.72989e-05
0
0
0
0
0
0.611325
0.849716
0.0538353
0.00788509
0.00176718
0.000531238
0.000200612
0
0
0
0
0
0.667704
0.906044
0.958558
0.599306
0.604535
0.0555264
0.00881847
0.00202513
0.000614511
0.000233574
0
0
0
0
0
0
0
0
1.22276e-52
2.60715e-41
6.2898e-42
7.30568e-43
2.90048e-44
3.95506e-34
2.90078e-34
1.20081e-34
4.3764e-35
1.56432e-35
5.86056e-36
2.3704e-36
0
0
0
0
0
0
0
0
0
0
0
0
0
0
0
0
0
0
0
0
0
0
0
0
0
0
0
0
0
0
0
0
0
0
0
0
0
0
0
0
0
0
0
0
0
0
0
0
0
0
0
0
0
0
0
0
0
0
0
0
0
0
0
0
0
0
0
0
0
0
0
0
0
0
0
0
0
0
0
0
0
0
0
0
0
0
0
0
0
0
0
0
0
0
0
0
0
0
0
0
0
0
0
0
0
0
0
0
0
0
0
0
0
0
0
0
0
0
0
0
0
0
0
0
0
0
0
0
0
0
0
0
0
0
0
0
0
0
0
0
0
0
0
0
0
0
0
0
0
0
0
0
0
0
0
0
0
0
0
0
0
0
0
0
0
0
0
0
0
4.34574e-49
1.24616e-49
1.52615e-50
9.79736e-52
3.2273e-36
2.26179e-36
8.79668e-37
3.03789e-37
1.05051e-37
3.86773e-38
1.5579e-38
0
0
0
0
0
0.665672
0.697519
0.733988
0.787417
1.00001
1.00001
1.00001
0.298003
0.406683
0.603316
0.0549553
0.00868637
0.00199066
0.0006035
0.000229289
0
0
0
0
0
0.609638
0.956116
1
0.999996
0.99998
0.999991
0.999991
1
1.00001
0.768262
0.0527224
0.00766423
0.00171379
0.000514736
0.0001943
0
0
0
0
0
0.608482
1
0.999972
0.999819
0.9997
0.999829
0.999783
0.999965
1
0.896677
0.0654193
0.00169006
0.000385154
0.000116585
4.39467e-05
0
0
0
0
0
0.428511
0.999993
0.999731
0.99949
0.999204
0.999335
0.999769
0.999935
0.999996
1
0.0502542
0.000463295
9.81433e-05
2.88611e-05
1.07541e-05
0
0
0
0
0
1.00001
0.999959
0.99947
0.998779
0.999404
0.999598
0.999677
0.999941
0.999985
1
0.000401115
1.07734e-05
2.88039e-06
9.2681e-07
3.53502e-07
0
0
0
0
0
1.00001
0.999986
0.999717
0.998796
0.999408
0.999592
0.999678
0.999936
0.999981
1
1.65061e-05
1.07928e-05
2.90701e-06
9.40947e-07
3.59848e-07
0
0
0
0
0
1.00001
0.999974
0.999517
0.999504
0.999239
0.999351
0.999752
0.999949
0.999992
1
0.00526204
0.000464481
9.89698e-05
2.91849e-05
1.08907e-05
0
0
0
0
0
0.543452
1
0.999918
0.999822
0.999873
0.999877
0.999873
0.999918
0.999998
1
0.0552974
0.00169399
0.000391308
0.000118637
4.47618e-05
0
0
0
0
0
0.610394
1.00001
1
0.999977
0.999849
0.999792
0.999942
0.999997
1
0.842799
0.0527148
0.0076714
0.00171515
0.000515105
0.000194433
0
0
0
0
0
0.665676
0.901651
0.951681
1
1
0.999998
1
1.00001
0.58186
0.60333
0.0549636
0.00868784
0.00199103
0.000603614
0.000229333
0
0
0
0
0
0
0
0
4.58732e-56
8.79335e-45
2.1802e-45
2.50133e-46
1.32449e-47
1.74606e-36
1.23354e-36
4.82022e-37
1.66856e-37
5.7764e-38
2.12766e-38
8.57071e-39
0
0
0
0
0
0
0
0
0
0
0
0
0
0
0
0
0
0
0
0
0
0
0
0
0
0
0
0
0
0
0
0
0
0
0
0
0
0
0
0
0
0
0
0
0
0
0
0
0
0
0
0
0
0
0
0
0
0
0
0
0
0
0
0
0
0
0
0
0
0
0
0
0
0
0
0
0
0
0
0
0
0
0
0
0
0
0
0
0
0
0
0
0
0
0
0
0
0
0
0
0
0
0
0
0
0
0
0
0
0
0
0
0
0
0
0
0
0
0
0
0
0
0
0
0
0
0
0
0
0
0
0
0
0
0
0
0
0
0
0
0
0
0
0
0
0
0
0
0
0
0
0
0
0
0
0
0
0
0
0
0
0
0
0
0
0
0
0
0
1.85641e-52
5.69729e-53
8.12376e-54
6.01117e-55
2.24147e-38
1.3956e-38
4.71909e-39
1.45419e-39
4.68819e-40
1.66496e-40
6.64503e-41
0
0
0
0
0
0.651644
0.682335
0.72612
0.762551
0.313711
0.411594
0.605828
0.0547423
0.00866911
0.00198853
0.000603017
0.000229112
0
0
0
0
0
0.598056
0.954257
0.776959
0.0534137
0.00780622
0.00174909
0.000525625
0.000198446
0
0
0
0
0
0.612816
0.999292
0.999453
0.903825
0.0656929
0.00178068
0.000406096
0.000122894
4.63258e-05
0
0
0
0
0
0.432657
0.999573
0.99805
0.998347
0.999762
0.999771
0.0546847
0.000552573
0.000117312
3.44768e-05
1.28461e-05
0
0
0
0
0
0.998905
0.997032
0.998514
0.998984
0.999195
0.999883
0.000412395
1.23303e-05
3.32159e-06
1.07128e-06
4.08962e-07
0
0
0
0
0
0.999261
0.997074
0.998523
0.99897
0.999199
0.999858
1.62463e-05
1.23584e-05
3.3514e-06
1.08646e-06
4.15722e-07
0
0
0
0
0
0.999684
0.998131
0.998385
0.999754
0.99989
0.00559416
0.000554101
0.000118247
3.48272e-05
1.29915e-05
0
0
0
0
0
0.551154
0.999364
0.999748
0.9997
0.999698
0.0575754
0.00178542
0.000412549
0.000125034
4.71736e-05
0
0
0
0
0
0.598303
0.850392
0.0534019
0.00781621
0.0017511
0.000526189
0.000198652
0
0
0
0
0
0.651645
0.893851
0.946232
0.597966
0.605844
0.0547489
0.00867032
0.00198883
0.000603112
0.000229149
0
0
0
0
0
0
0
0
3.87273e-59
5.40193e-48
1.19642e-48
1.51477e-49
1.36506e-50
1.2132e-38
7.60268e-39
2.58081e-39
7.96827e-40
2.57129e-40
9.13501e-41
3.64613e-41
0
0
0
0
0
0
0
0
0
0
0
0
0
0
0
0
0
0
0
0
0
0
0
0
0
0
0
0
0
0
0
0
0
0
0
0
0
0
0
0
0
0
0
0
0
0
0
0
0
0
0
0
0
0
0
0
0
0
0
0
0
0
0
0
0
0
0
0
0
0
0
0
0
0
0
0
0
0
0
0
0
0
0
0
0
0
0
0
0
0
0
0
0
0
0
0
0
0
0
0
0
0
0
0
0
0
0
0
0
0
0
0
0
0
0
0
0
0
0
0
0
0
0
0
0
0
0
0
0
0
0
0
0
0
0
0
0
0
0
0
0
0
0
0
0
0
0
0
0
0
0
0
0
0
0
0
0
0
0
0
0
0
0
0
0
0
0
0
0
1.60434e-55
5.54622e-56
8.31181e-57
6.32072e-58
1.89288e-40
1.0495e-40
3.11201e-41
8.64679e-42
2.60328e-42
8.91302e-43
3.52001e-43
0
0
0
0
0
0.639332
0.667315
0.726279
0.76604
0.332644
0.419017
0.609271
0.0547376
0.00868599
0.00199519
0.000605401
0.000230067
0
0
0
0
0
0.587228
0.954322
0.787585
0.0542385
0.00797258
0.00179133
0.000538887
0.000203547
0
0
0
0
0
0.625579
0.999363
0.999201
0.911289
0.0681804
0.00187244
0.000427867
0.000129551
4.88566e-05
0
0
0
0
0
0.444712
0.999507
0.995889
0.996461
0.999592
0.999711
0.0599443
0.0006132
0.000131161
3.86372e-05
1.44126e-05
0
0
0
0
0
0.999539
0.993806
0.996821
0.997799
0.998271
0.999867
0.00041977
1.29503e-05
3.52582e-06
1.14161e-06
4.36495e-07
0
0
0
0
0
0.999688
0.993893
0.996839
0.997765
0.998283
0.999835
1.56277e-05
1.29779e-05
3.55454e-06
1.15629e-06
4.43048e-07
0
0
0
0
0
0.999629
0.996051
0.99654
0.999513
0.999839
0.00593913
0.000614844
0.000132101
3.89844e-05
1.45558e-05
0
0
0
0
0
0.569837
0.999646
0.999674
0.999416
0.999422
0.0621286
0.0018777
0.000434402
0.000131714
4.97119e-05
0
0
0
0
0
0.58845
0.859257
0.0542269
0.00798519
0.00179394
0.00053964
0.000203825
0
0
0
0
0
0.639333
0.890676
0.948331
0.617416
0.609294
0.054744
0.00868717
0.00199548
0.000605493
0.000230103
0
0
0
0
0
0
0
0
5.37413e-62
6.21644e-51
1.23296e-51
1.61121e-52
1.67654e-53
1.02447e-40
5.71015e-41
1.69849e-41
4.72647e-42
1.424e-42
4.87676e-43
1.92607e-43
0
0
0
0
0
0
0
0
0
0
0
0
0
0
0
0
0
0
0
0
0
0
0
0
0
0
0
0
0
0
0
0
0
0
0
0
0
0
0
0
0
0
0
0
0
0
0
0
0
0
0
0
0
0
0
0
0
0
0
0
0
0
0
0
0
0
0
0
0
0
0
0
0
0
0
0
0
0
0
0
0
0
0
0
0
0
0
0
0
0
0
0
0
0
0
0
0
0
0
0
0
0
0
0
0
0
0
0
0
0
0
0
0
0
0
0
0
0
0
0
0
0
0
0
0
0
0
0
0
0
0
0
0
0
0
0
0
0
0
0
0
0
0
0
0
0
0
0
0
0
0
0
0
0
0
0
0
0
0
0
0
0
0
0
0
0
0
0
0
2.98209e-58
9.81878e-59
1.37488e-59
9.64545e-61
1.81371e-42
8.86791e-43
2.33916e-43
5.98405e-44
1.70558e-44
5.66857e-45
2.21793e-45
0
0
0
0
0
0.627924
0.657132
0.720371
0.750396
0.335809
0.421178
0.610888
0.0542305
0.00858654
0.00197242
0.000598639
0.000227533
0
0
0
0
0
0.580298
0.953201
0.790388
0.0536449
0.00787581
0.00177103
0.000533133
0.000201452
0
0
0
0
0
0.622751
0.998898
0.997928
0.913478
0.0677084
0.0018293
0.000418636
0.000126887
4.78833e-05
0
0
0
0
0
0.441281
0.998663
0.99202
0.993012
0.998854
0.999295
0.0578508
0.00058881
0.000126474
3.73431e-05
1.39471e-05
0
0
0