/*--------------------------------*- C++ -*----------------------------------*\
  =========                 |
  \\      /  F ield         | OpenFOAM: The Open Source CFD Toolbox
   \\    /   O peration     | Website:  https://openfoam.org
    \\  /    A nd           | Version:  11
     \\/     M anipulation  |
\*---------------------------------------------------------------------------*/
FoamFile
{
    format      ascii;
    class       volScalarField;
    location    "0.0002";
    object      rho;
}
// * * * * * * * * * * * * * * * * * * * * * * * * * * * * * * * * * * * * * //

dimensions      [1 -3 0 0 0 0 0];

internalField   nonuniform List<scalar> 
21740
(
2.83367
2.82269
2.811
2.79809
2.78341
2.76633
2.74616
2.72224
2.69398
2.66097
2.623
2.5801
2.53249
2.48061
2.42545
2.36946
2.31889
2.28965
2.32349
2.27834
2.83373
2.8229
2.81136
2.79861
2.78409
2.76712
2.74696
2.72286
2.69416
2.66043
2.62157
2.57779
2.52953
2.47739
2.4224
2.36688
2.31692
2.28833
2.32281
2.27812
2.83387
2.82332
2.8121
2.79972
2.78556
2.7689
2.74884
2.72442
2.69485
2.65961
2.61878
2.57301
2.52329
2.47059
2.41602
2.3615
2.31275
2.28537
2.32099
2.27716
2.83408
2.82398
2.81327
2.80148
2.788
2.77199
2.75234
2.72762
2.69682
2.65903
2.61467
2.56527
2.51307
2.45945
2.40592
2.35326
2.30656
2.28112
2.31847
2.27592
2.83437
2.82486
2.81486
2.80396
2.79157
2.77677
2.75831
2.73845
2.70906
2.67048
2.6234
2.57009
2.51449
2.44261
2.39115
2.34183
2.29828
2.27556
2.31523
2.27431
2.8347
2.82593
2.81682
2.80711
2.79632
2.78359
2.76903
2.74769
2.71936
2.49332
2.43775
2.37077
2.32665
2.28777
2.26884
2.31142
2.27239
2.83506
2.82709
2.81902
2.81078
2.80216
2.79273
2.78074
2.35811
2.3067
2.27452
2.26092
2.30711
2.27027
2.8354
2.8282
2.82113
2.81435
2.8082
2.80158
2.29535
2.29536
2.31997
2.29448
2.26057
2.25279
2.30274
2.26826
2.83567
2.82907
2.82279
2.81718
2.81288
2.80925
2.29527
2.29693
2.29693
2.29555
2.29525
2.27147
2.24899
2.24596
2.29897
2.26659
2.83581
2.82955
2.82373
2.81884
2.816
2.29535
2.29693
2.29796
2.29796
2.29693
2.29544
2.25438
2.24185
2.242
2.2968
2.2656
2.83581
2.82955
2.82373
2.81884
2.81671
2.29535
2.29692
2.29796
2.29796
2.29692
2.29559
2.25066
2.24185
2.242
2.2968
2.2656
2.83567
2.82907
2.82279
2.81718
2.81472
2.29554
2.29692
2.29692
2.29592
2.29533
2.26138
2.24899
2.24596
2.29897
2.26659
2.8354
2.8282
2.82113
2.81435
2.81078
2.80575
2.29523
2.29542
2.29558
2.29533
2.28263
2.26057
2.25279
2.30274
2.26825
2.83506
2.82709
2.81902
2.81078
2.80216
2.7973
2.33843
2.3067
2.27452
2.26092
2.30711
2.27027
2.8347
2.82593
2.81682
2.80711
2.79632
2.78359
2.77419
2.75557
2.42039
2.37077
2.32665
2.28776
2.26883
2.31142
2.27239
2.83437
2.82486
2.81486
2.80396
2.79157
2.77677
2.75831
2.74264
2.71157
2.67206
2.62124
2.56435
2.50547
2.44261
2.39115
2.34183
2.29828
2.27556
2.31523
2.27431
2.83408
2.82398
2.81327
2.80148
2.788
2.77199
2.75234
2.72761
2.69682
2.65903
2.61466
2.56527
2.51306
2.45945
2.40592
2.35326
2.30656
2.28112
2.31847
2.27592
2.83387
2.82332
2.8121
2.79972
2.78556
2.7689
2.74884
2.72442
2.69485
2.65961
2.61878
2.57301
2.52329
2.47059
2.41602
2.3615
2.31275
2.28537
2.32099
2.27716
2.83373
2.8229
2.81136
2.79861
2.78409
2.76712
2.74696
2.72286
2.69416
2.66043
2.62157
2.57779
2.52953
2.47739
2.4224
2.36688
2.31692
2.28833
2.32281
2.27812
2.83367
2.82269
2.811
2.79809
2.78341
2.76633
2.74616
2.72224
2.69398
2.66097
2.623
2.5801
2.53248
2.48061
2.42545
2.36946
2.31889
2.28965
2.32349
2.27834
2.83365
2.82265
2.81094
2.79801
2.78332
2.76622
2.74604
2.7221
2.69381
2.66077
2.62278
2.57986
2.53225
2.4804
2.4253
2.36936
2.31885
2.28965
2.32352
2.27836
2.83372
2.82286
2.8113
2.79854
2.78401
2.76703
2.74686
2.72272
2.69399
2.66023
2.62134
2.57753
2.52927
2.47717
2.42225
2.36681
2.31692
2.28837
2.32287
2.27815
2.83386
2.82329
2.81205
2.79966
2.78551
2.76885
2.74878
2.72433
2.6947
2.6594
2.61851
2.57269
2.52297
2.47034
2.4159
2.36151
2.31284
2.28549
2.3211
2.27721
2.83407
2.82395
2.81323
2.80145
2.78801
2.77205
2.75241
2.72763
2.69673
2.65883
2.61434
2.56485
2.51264
2.45916
2.4059
2.35353
2.30689
2.28136
2.31865
2.27598
2.83436
2.82484
2.81484
2.80398
2.79171
2.77709
2.75866
2.7386
2.7091
2.67037
2.62316
2.56972
2.51409
2.44229
2.39141
2.34269
2.29904
2.276
2.31551
2.2744
2.83469
2.8259
2.8168
2.80715
2.79651
2.78407
2.76937
2.74804
2.71956
2.4926
2.43757
2.37163
2.32866
2.28926
2.26953
2.31181
2.27251
2.83506
2.82707
2.81901
2.81084
2.8024
2.79306
2.78125
2.35898
2.30909
2.27617
2.26171
2.30755
2.2704
2.83539
2.82817
2.8211
2.81438
2.8083
2.80183
2.30117
2.30118
2.32129
2.29621
2.26191
2.25353
2.30318
2.26838
2.83566
2.82904
2.82275
2.81717
2.81291
2.80936
2.30102
2.30641
2.3064
2.30154
2.30106
2.27283
2.25005
2.2466
2.29937
2.26671
2.8358
2.82952
2.82368
2.81879
2.81597
2.30117
2.3064
2.30818
2.30818
2.3064
2.30138
2.25532
2.24269
2.24254
2.29717
2.26571
2.8358
2.82952
2.82368
2.81879
2.81668
2.30118
2.30639
2.30817
2.30817
2.3064
2.30164
2.2515
2.24269
2.24254
2.29717
2.26571
2.83566
2.82904
2.82275
2.81717
2.81472
2.30153
2.30638
2.30639
2.30231
2.30119
2.26253
2.25004
2.2466
2.29937
2.26671
2.83539
2.82817
2.8211
2.81438
2.81084
2.80593
2.30103
2.30135
2.30163
2.30118
2.28414
2.26191
2.25353
2.30318
2.26838
2.83506
2.82707
2.81901
2.81083
2.8024
2.79761
2.3396
2.30909
2.27617
2.26171
2.30755
2.2704
2.83469
2.8259
2.8168
2.80715
2.79651
2.78407
2.77466
2.75596
2.42012
2.37163
2.32866
2.28926
2.26953
2.31181
2.27251
2.83436
2.82484
2.81484
2.80398
2.79171
2.77709
2.75866
2.74286
2.71175
2.67199
2.62097
2.56373
2.50499
2.44229
2.39141
2.34269
2.29904
2.276
2.31551
2.2744
2.83407
2.82395
2.81323
2.80145
2.78801
2.77205
2.7524
2.72763
2.69673
2.65882
2.61434
2.56484
2.51264
2.45916
2.4059
2.35353
2.30689
2.28136
2.31865
2.27598
2.83386
2.82329
2.81205
2.79966
2.78551
2.76885
2.74878
2.72433
2.6947
2.6594
2.6185
2.57269
2.52296
2.47034
2.4159
2.36151
2.31284
2.28549
2.3211
2.27721
2.83372
2.82286
2.8113
2.79854
2.78401
2.76703
2.74685
2.72272
2.69399
2.66023
2.62134
2.57753
2.52927
2.47717
2.42225
2.36681
2.31692
2.28837
2.32287
2.27815
2.83365
2.82265
2.81094
2.79801
2.78332
2.76622
2.74603
2.72209
2.69381
2.66077
2.62278
2.57986
2.53225
2.4804
2.42529
2.36936
2.31885
2.28965
2.32352
2.27836
2.83363
2.82258
2.81083
2.79786
2.78313
2.766
2.74579
2.7218
2.69348
2.66039
2.62235
2.57942
2.53181
2.48001
2.42498
2.36915
2.31873
2.28959
2.3235
2.27832
2.8337
2.82279
2.81119
2.7984
2.78385
2.76685
2.74664
2.72246
2.69366
2.65984
2.62088
2.57704
2.52878
2.47675
2.42195
2.36665
2.31687
2.28837
2.32288
2.27811
2.83384
2.82323
2.81195
2.79954
2.7854
2.76876
2.74867
2.72414
2.69441
2.659
2.61798
2.57208
2.52235
2.46985
2.41563
2.36151
2.31297
2.2856
2.32117
2.27717
2.83406
2.82389
2.81315
2.80139
2.78803
2.7722
2.75257
2.72766
2.69657
2.65844
2.61372
2.564
2.51177
2.45858
2.4058
2.35401
2.30743
2.28169
2.31882
2.27595
2.83434
2.82479
2.81479
2.80401
2.79198
2.77784
2.75952
2.73905
2.70925
2.67015
2.62261
2.56879
2.51292
2.44151
2.39171
2.34449
2.30041
2.27661
2.3158
2.27438
2.83468
2.82586
2.81678
2.80725
2.79703
2.78508
2.77062
2.74901
2.72
2.49069
2.43663
2.37267
2.33367
2.29208
2.27049
2.31226
2.27252
2.83504
2.82703
2.81899
2.81097
2.803
2.79414
2.78295
2.36105
2.31492
2.27929
2.2629
2.3081
2.27043
2.83538
2.82812
2.82106
2.81445
2.80861
2.80267
2.31766
2.31771
2.32487
2.30048
2.26448
2.25471
2.30375
2.26843
2.83564
2.82898
2.82268
2.81715
2.81304
2.80972
2.3174
2.32367
2.32366
2.31816
2.31747
2.27617
2.25205
2.24766
2.2999
2.26677
2.83578
2.82945
2.82359
2.81872
2.81597
2.31765
2.32366
2.32666
2.32666
2.32366
2.31798
2.25759
2.24424
2.24346
2.29764
2.26578
2.83578
2.82945
2.82359
2.81872
2.81663
2.31769
2.32365
2.32665
2.32665
2.32366
2.31839
2.25345
2.24424
2.24346
2.29764
2.26578
2.83564
2.82898
2.82268
2.81715
2.81477
2.31814
2.32364
2.32365
2.31931
2.31772
2.26534
2.25205
2.24765
2.2999
2.26677
2.83538
2.82812
2.82106
2.81445
2.81106
2.80649
2.31746
2.31795
2.31837
2.31771
2.28796
2.26448
2.25471
2.30375
2.26843
2.83504
2.82703
2.81899
2.81097
2.803
2.7986
2.34267
2.31492
2.27929
2.2629
2.3081
2.27043
2.83468
2.82586
2.81678
2.80725
2.79703
2.78508
2.77624
2.75722
2.41937
2.37267
2.33367
2.29208
2.27049
2.31226
2.27252
2.83434
2.82479
2.81479
2.80401
2.79198
2.77784
2.75952
2.7436
2.71204
2.67183
2.62037
2.56255
2.50352
2.44151
2.39171
2.34449
2.30041
2.27661
2.3158
2.27438
2.83406
2.82389
2.81315
2.80139
2.78803
2.7722
2.75257
2.72766
2.69657
2.65844
2.61372
2.564
2.51177
2.45858
2.4058
2.35401
2.30743
2.28169
2.31882
2.27595
2.83384
2.82323
2.81195
2.79954
2.7854
2.76875
2.74867
2.72414
2.69441
2.65899
2.61798
2.57208
2.52235
2.46985
2.41563
2.36151
2.31297
2.2856
2.32117
2.27717
2.8337
2.82279
2.81119
2.7984
2.78384
2.76684
2.74664
2.72246
2.69366
2.65983
2.62088
2.57703
2.52877
2.47675
2.42195
2.36665
2.31687
2.28837
2.32288
2.27811
2.83363
2.82258
2.81083
2.79786
2.78313
2.766
2.74578
2.7218
2.69347
2.66039
2.62235
2.57941
2.53181
2.48001
2.42498
2.36915
2.31873
2.28959
2.3235
2.27832
2.8336
2.82248
2.81066
2.79764
2.78286
2.76568
2.74541
2.72137
2.69298
2.65983
2.62175
2.57878
2.53119
2.47946
2.42455
2.36885
2.31856
2.28951
2.32348
2.27828
2.83367
2.82269
2.81103
2.79819
2.78359
2.76656
2.74631
2.72206
2.69318
2.65927
2.62023
2.57634
2.52809
2.47616
2.42153
2.36642
2.31679
2.28837
2.32291
2.27809
2.83381
2.82313
2.8118
2.79936
2.78522
2.7686
2.74848
2.72386
2.69399
2.65842
2.61725
2.57123
2.5215
2.46919
2.41527
2.3615
2.31314
2.28577
2.32128
2.27715
2.83403
2.8238
2.81303
2.80128
2.78803
2.77242
2.75282
2.72772
2.69634
2.65791
2.61285
2.56281
2.51056
2.45784
2.40567
2.35471
2.30825
2.28216
2.31906
2.27595
2.83432
2.82471
2.8147
2.80403
2.79238
2.77912
2.76093
2.73987
2.70957
2.66985
2.62178
2.56729
2.51096
2.43955
2.39024
2.34706
2.30244
2.27744
2.31622
2.27441
2.83466
2.82579
2.81673
2.8074
2.79759
1.1479
2.61317
2.75006
2.71996
2.48459
2.43342
1.22804
1.96048
2.21191
2.24816
2.30411
2.26881
2.83502
2.82696
2.81895
2.81119
2.80389
2.79584
2.78626
2.02197
2.09878
2.23769
2.25165
2.30413
2.2685
2.83535
2.82805
2.821
2.81457
2.8092
2.80371
2.34466
2.34471
2.30436
2.28001
2.25591
2.25301
2.30331
2.26803
2.83561
2.82889
2.82258
2.81714
2.81331
2.80968
2.34409
1.39158
1.39182
2.3465
2.34404
2.28233
2.25049
2.248
2.30021
2.26673
2.83575
2.82935
2.82345
2.8186
2.81597
2.34465
1.3917
1.35887
1.3589
1.39154
2.3456
2.26129
2.24621
2.24466
2.29825
2.26591
2.83575
2.82935
2.82345
2.8186
2.81657
2.34474
1.39149
1.35889
1.35888
1.39171
2.3469
2.25644
2.24621
2.24466
2.29825
2.26591
2.83561
2.82889
2.82258
2.81714
2.81488
2.3465
1.39174
1.39152
2.34992
2.34456
2.27039
2.25049
2.248
2.30021
2.26673
2.83535
2.82805
2.821
2.81457
2.81148
2.80682
2.34401
2.34554
2.34689
2.34455
2.29233
2.25591
2.25301
2.30331
2.26803
2.83502
2.82696
2.81895
2.81119
2.80389
2.80009
2.24786
2.09877
2.23768
2.25165
2.30413
2.2685
2.83466
2.82579
2.81673
2.8074
2.79759
1.1479
2.62942
2.75885
2.41636
1.22805
1.96047
2.21191
2.24816
2.3041
2.26881
2.83432
2.82471
2.8147
2.80403
2.79238
2.77912
2.76092
2.74513
2.71273
2.67163
2.61947
2.56046
2.5006
2.43955
2.39024
2.34706
2.30244
2.27744
2.31622
2.27441
2.83403
2.8238
2.81303
2.80128
2.78803
2.77241
2.75282
2.72772
2.69634
2.65791
2.61285
2.56281
2.51056
2.45784
2.40567
2.35471
2.30825
2.28216
2.31906
2.27595
2.83381
2.82313
2.8118
2.79936
2.78522
2.7686
2.74848
2.72386
2.69399
2.65842
2.61725
2.57122
2.5215
2.46919
2.41527
2.3615
2.31314
2.28577
2.32128
2.27715
2.83367
2.82269
2.81103
2.79819
2.78359
2.76656
2.74631
2.72206
2.69318
2.65927
2.62023
2.57634
2.52809
2.47616
2.42153
2.36642
2.31679
2.28837
2.32291
2.27809
2.8336
2.82248
2.81066
2.79764
2.78286
2.76568
2.74541
2.72137
2.69298
2.65983
2.62175
2.57878
2.53119
2.47946
2.42455
2.36885
2.31856
2.28951
2.32348
2.27828
2.83355
2.82234
2.81044
2.79734
2.78249
2.76525
2.74492
2.72081
2.69234
2.65913
2.62099
2.578
2.53043
2.47878
2.42401
2.36848
2.31833
2.2894
2.32344
2.27822
2.83362
2.82256
2.81081
2.7979
2.78325
2.76617
2.74586
2.72153
2.69256
2.65855
2.61943
2.57549
2.52727
2.47547
2.42102
2.36613
2.31666
2.28834
2.32293
2.27805
2.83377
2.823
2.8116
2.79911
2.78496
2.76834
2.74819
2.72346
2.69343
2.65769
2.61636
2.57022
2.52054
2.46847
2.41488
2.36146
2.31327
2.28591
2.32139
2.27713
2.83399
2.82368
2.81285
2.80111
2.78795
2.77254
2.753
2.7277
2.69599
2.65722
2.61182
2.56149
2.50931
2.45722
2.40569
2.35545
2.30899
2.28261
2.31931
2.27595
2.83428
2.8246
2.81457
2.80399
2.79271
2.78032
2.7624
2.74088
2.70995
2.66943
2.62076
2.56557
2.50882
2.4379
2.3905
2.34973
2.30424
2.27828
2.31664
2.27444
2.83462
2.82569
2.81664
2.80754
2.79846
1.04723
1.03006
0.982444
0.86309
1.50285
1.29156
0.988025
1.90436
2.20062
2.24539
2.30326
2.26826
2.83499
2.82686
2.81887
2.81141
2.80497
1.13348
0.903915
0.866357
1.89432
2.19558
2.24063
2.30028
2.26665
2.83532
2.82793
2.82088
2.81467
2.81
1.08781
1.286
1.28745
0.795712
1.77182
2.2437
2.25045
2.30253
2.26751
2.83556
2.82875
2.82241
2.81707
2.81366
1.30377
1.28889
0.970573
0.970638
1.27988
1.28698
1.79288
2.2477
2.24804
2.30032
2.26667
2.8357
2.8292
2.82325
2.81842
2.81594
1.28596
0.970606
0.957343
0.95736
0.970607
1.28287
2.25701
2.24831
2.24586
2.29874
2.26607
2.8357
2.8292
2.82325
2.81842
2.81647
1.28731
0.970509
0.957333
0.957342
0.970547
1.28008
2.25946
2.24831
2.24586
2.29874
2.26607
2.83556
2.82875
2.82241
2.81707
2.815
1.27962
0.970568
0.970581
1.26841
1.28842
2.19126
2.2477
2.24804
2.30032
2.26667
2.83532
2.82793
2.82088
2.81467
2.81207
1.1315
1.29098
1.28318
1.28
1.2883
1.79259
2.24369
2.25045
2.30253
2.26751
2.83499
2.82686
2.81887
2.81141
2.80497
1.13474
0.826546
1.89431
2.19557
2.24062
2.30028
2.26665
2.83462
2.82569
2.81664
2.80754
2.79846
1.04722
0.910724
0.880379
1.00315
0.98803
1.90434
2.20062
2.24539
2.30326
2.26826
2.83428
2.8246
2.81457
2.80399
2.79271
2.78032
2.7624
2.74685
2.71179
2.67129
2.6184
2.55814
2.49516
2.4379
2.3905
2.34973
2.30424
2.27828
2.31664
2.27444
2.83399
2.82368
2.81285
2.80111
2.78795
2.77254
2.753
2.7277
2.69599
2.65722
2.61182
2.56149
2.50931
2.45722
2.40569
2.35545
2.30899
2.2826
2.31931
2.27595
2.83377
2.823
2.8116
2.79911
2.78495
2.76834
2.74819
2.72346
2.69343
2.65768
2.61636
2.57022
2.52054
2.46847
2.41488
2.36146
2.31327
2.28591
2.32139
2.27713
2.83362
2.82256
2.81081
2.7979
2.78325
2.76617
2.74586
2.72153
2.69256
2.65854
2.61943
2.57549
2.52727
2.47546
2.42102
2.36613
2.31666
2.28834
2.32293
2.27805
2.83355
2.82234
2.81043
2.79734
2.78249
2.76525
2.74492
2.72081
2.69234
2.65912
2.62099
2.578
2.53043
2.47878
2.42401
2.36848
2.31833
2.2894
2.32344
2.27822
2.8335
2.82217
2.81016
2.79696
2.78203
2.76471
2.7443
2.72012
2.69157
2.65829
2.6201
2.5771
2.52957
2.47802
2.42339
2.36803
2.31804
2.28924
2.32337
2.27816
2.83357
2.82239
2.81054
2.79754
2.78281
2.76567
2.74528
2.72086
2.69179
2.65769
2.6185
2.57454
2.52637
2.4747
2.42045
2.36577
2.31647
2.28825
2.32292
2.27801
2.83371
2.82283
2.81134
2.79878
2.78458
2.76794
2.74773
2.72288
2.6927
2.6568
2.61535
2.56915
2.51955
2.46773
2.41446
2.36132
2.3133
2.28597
2.32146
2.2771
2.83393
2.82352
2.81261
2.80084
2.78772
2.77242
2.75288
2.72741
2.69543
2.65636
2.61067
2.56019
2.5082
2.45667
2.40575
2.35593
2.30947
2.28293
2.31951
2.27594
2.83423
2.82445
2.81436
2.80383
2.79279
2.78089
2.76317
2.74139
2.70994
2.66879
2.61961
2.564
2.50734
2.43769
2.39163
2.35148
2.30551
2.27897
2.317
2.27447
2.83458
2.82555
2.81647
2.80752
2.79902
1.05366
1.01896
0.961986
0.871062
1.51091
1.27324
0.974206
1.92159
2.20842
2.24829
2.30449
2.26864
2.83494
2.82671
2.81871
2.81144
2.80576
1.12006
0.843292
0.80502
1.91233
2.20375
2.24363
2.30152
2.26705
2.83526
2.82777
2.82068
2.81459
2.81056
1.07484
0.918024
0.918721
0.720861
1.78921
2.24956
2.25264
2.30337
2.26779
2.8355
2.82857
2.82215
2.81684
2.81384
1.33083
0.919943
0.843528
0.843551
0.913953
0.919756
1.80968
2.2516
2.24961
2.30083
2.2669
2.83564
2.82901
2.82295
2.8181
2.81579
0.917986
0.843553
0.836241
0.83625
0.843562
0.915454
2.26155
2.25046
2.2469
2.29898
2.26626
2.83564
2.82901
2.82295
2.8181
2.81625
0.918679
0.843503
0.83623
0.836232
0.843518
0.913233
2.26229
2.25046
2.2469
2.29898
2.26626
2.8355
2.82857
2.82215
2.81684
2.81498
0.913895
0.843559
0.84356
0.90963
0.919788
2.20303
2.2516
2.24961
2.30083
2.2669
2.83526
2.82777
2.82068
2.81459
2.81246
1.13381
0.920088
0.915448
0.913212
0.920013
1.80905
2.24955
2.25264
2.30337
2.26779
2.83494
2.82671
2.81871
2.81144
2.80576
1.11901
0.754808
1.91233
2.20375
2.24363
2.30152
2.26705
2.83458
2.82555
2.81647
2.80752
2.79902
1.05366
0.864225
0.82985
0.958529
0.974211
1.92158
2.20842
2.24829
2.30449
2.26864
2.83423
2.82445
2.81436
2.80383
2.79279
2.78089
2.76316
2.74812
2.7134
2.67081
2.61724
2.55636
2.49352
2.43769
2.39163
2.35148
2.30551
2.27897
2.317
2.27447
2.83393
2.82352
2.81261
2.80083
2.78772
2.77242
2.75288
2.72741
2.69542
2.65635
2.61067
2.56018
2.50819
2.45667
2.40575
2.35593
2.30947
2.28293
2.3195
2.27594
2.83371
2.82283
2.81134
2.79878
2.78458
2.76794
2.74773
2.72288
2.6927
2.6568
2.61534
2.56915
2.51955
2.46773
2.41446
2.36132
2.3133
2.28597
2.32145
2.2771
2.83357
2.82239
2.81054
2.79754
2.78281
2.76566
2.74528
2.72086
2.69179
2.65769
2.6185
2.57454
2.52637
2.4747
2.42045
2.36576
2.31647
2.28825
2.32292
2.27801
2.8335
2.82217
2.81016
2.79696
2.78203
2.76471
2.7443
2.72011
2.69157
2.65829
2.6201
2.5771
2.52957
2.47802
2.42339
2.36803
2.31804
2.28924
2.32337
2.27816
2.83343
2.82197
2.80983
2.79652
2.78148
2.76407
2.74357
2.7193
2.69069
2.65734
2.61912
2.57611
2.52864
2.47719
2.42271
2.36751
2.3177
2.28904
2.32328
2.27809
2.8335
2.82219
2.81021
2.7971
2.78228
2.76504
2.74457
2.72006
2.6909
2.65672
2.61748
2.57351
2.52541
2.47387
2.41981
2.36532
2.31619
2.28811
2.32287
2.27795
2.83364
2.82263
2.81101
2.79835
2.78408
2.76738
2.74709
2.72213
2.69182
2.65579
2.61424
2.56803
2.51854
2.46694
2.41395
2.36106
2.31319
2.28595
2.32148
2.27705
2.83387
2.82332
2.8123
2.80045
2.78731
2.77202
2.75242
2.72681
2.69462
2.65532
2.60941
2.55885
2.50711
2.45607
2.40562
2.35608
2.30969
2.28312
2.31964
2.27592
2.83417
2.82425
2.81407
2.80351
2.79256
2.78086
2.76319
2.74127
2.70949
2.6679
2.6183
2.56248
2.50603
2.43725
2.39227
2.35239
2.30627
2.27946
2.31727
2.27448
2.83451
2.82536
2.8162
2.80729
2.79906
1.05719
1.02337
0.972568
0.887668
1.57879
1.30002
0.983355
1.9403
2.21579
2.25101
2.30562
2.26902
2.83487
2.82652
2.81843
2.81122
2.80587
1.12673
0.842651
0.811687
1.94196
2.21415
2.24724
2.30294
2.26757
2.83519
2.82756
2.82037
2.81428
2.81059
1.10103
0.822821
0.822535
0.721127
1.83392
2.25595
2.2549
2.30419
2.26813
2.83543
2.82834
2.82179
2.81641
2.81361
1.37302
0.823548
0.797206
0.797213
0.81554
0.823089
1.86802
2.25601
2.25119
2.30131
2.26718
2.83556
2.82876
2.82256
2.81759
2.81538
0.822803
0.797224
0.791738
0.791749
0.797253
0.818969
2.26493
2.25239
2.24777
2.29914
2.26647
2.83556
2.82876
2.82256
2.81759
2.8158
0.822407
0.797196
0.791736
0.791731
0.797217
0.815818
2.26413
2.25239
2.24777
2.29914
2.26647
2.83543
2.82834
2.82179
2.81641
2.81464
0.815541
0.797265
0.797259
0.811346
0.825221
2.21811
2.25601
2.25119
2.3013
2.26718
2.83519
2.82756
2.82037
2.81428
2.81236
1.17094
0.823127
0.818996
0.815801
0.825276
1.85986
2.25595
2.2549
2.30419
2.26813
2.83487
2.82652
2.81843
2.81122
2.80588
1.12431
0.757183
1.94195
2.21415
2.24724
2.30294
2.26757
2.83451
2.82536
2.8162
2.80729
2.79906
1.05718
0.865262
0.831307
0.98203
0.983359
1.94029
2.21578
2.25101
2.30562
2.26902
2.83417
2.82425
2.81407
2.80351
2.79256
2.78086
2.76319
2.74831
2.71355
2.67025
2.616
2.5541
2.49211
2.43725
2.39227
2.35239
2.30627
2.27946
2.31726
2.27448
2.83387
2.82332
2.8123
2.80045
2.78731
2.77201
2.75242
2.72681
2.69462
2.65532
2.60941
2.55885
2.50711
2.45607
2.40562
2.35608
2.30969
2.28312
2.31964
2.27592
2.83364
2.82263
2.81101
2.79835
2.78408
2.76737
2.74709
2.72213
2.69182
2.65579
2.61424
2.56803
2.51854
2.46694
2.41395
2.36106
2.31319
2.28595
2.32148
2.27705
2.8335
2.82219
2.81021
2.7971
2.78227
2.76504
2.74457
2.72006
2.69089
2.65671
2.61748
2.57351
2.52541
2.47387
2.41981
2.36532
2.31619
2.28811
2.32287
2.27795
2.83343
2.82197
2.80983
2.79652
2.78148
2.76407
2.74357
2.7193
2.69068
2.65734
2.61911
2.57611
2.52864
2.47719
2.42271
2.36751
2.31769
2.28904
2.32328
2.27809
2.83335
2.82174
2.80945
2.796
2.78084
2.76332
2.74273
2.71838
2.68969
2.65629
2.61804
2.57505
2.52763
2.47629
2.42196
2.36694
2.31729
2.2888
2.32316
2.278
2.83342
2.82195
2.80983
2.79658
2.78164
2.76431
2.74374
2.71915
2.6899
2.65565
2.61638
2.57241
2.52438
2.47297
2.41909
2.36479
2.31584
2.28792
2.32279
2.27788
2.83357
2.82239
2.81063
2.79785
2.78347
2.76668
2.74631
2.72125
2.69083
2.6547
2.61308
2.56686
2.51745
2.46605
2.41329
2.36063
2.31294
2.28584
2.32145
2.27699
2.83379
2.82309
2.81192
2.79997
2.78676
2.77141
2.75175
2.72602
2.69368
2.65421
2.60815
2.55754
2.50595
2.45524
2.40516
2.35587
2.30965
2.28316
2.31971
2.27588
2.83409
2.82402
2.8137
2.80307
2.7921
2.78043
2.76274
2.74074
2.70876
2.6669
2.61699
2.56103
2.50471
2.43645
2.39218
2.35253
2.30653
2.27972
2.31746
2.27447
2.83444
2.82512
2.81584
2.80689
2.79871
1.06192
1.02508
0.984473
0.908666
0.760626
0.760582
0.760668
1.65571
1.32626
0.989663
1.95162
2.22
2.25264
2.30637
2.26923
2.83479
2.82628
2.81808
2.81082
2.80556
1.12992
0.844158
0.760851
0.760966
0.762335
0.762797
0.761367
0.760878
0.760942
0.821054
1.95973
2.22
2.24939
2.30389
2.26786
2.83511
2.82731
2.81999
2.81384
2.81025
1.12987
0.760858
0.761802
0.771448
0.786383
0.787393
0.776481
0.765317
0.760983
0.725719
1.86895
2.25945
2.25629
2.30484
2.26831
2.83534
2.82808
2.82138
2.81591
2.81315
1.42424
0.760984
0.771444
0.778018
0.779934
0.779945
0.77806
0.785868
0.763252
0.760798
1.92661
2.25827
2.2522
2.3018
2.26733
2.83547
2.8285
2.82214
2.81705
2.81484
0.760663
0.762364
0.786387
0.779939
0.776927
0.77694
0.779975
0.786163
0.76911
0.760887
2.26722
2.25345
2.24844
2.29949
2.26659
2.83547
2.8285
2.82214
2.81705
2.81525
0.760627
0.76283
0.787364
0.779941
0.77694
0.776941
0.779967
0.783089
0.770426
0.760904
2.26523
2.25345
2.24844
2.29949
2.26659
2.83534
2.82808
2.82138
2.81591
2.81413
0.760719
0.76142
0.77649
0.778088
0.779988
0.779988
0.778097
0.787183
0.765216
0.760836
2.23091
2.25827
2.2522
2.30179
2.26733
2.83511
2.82731
2.81999
2.81384
2.81196
1.21469
0.760952
0.765376
0.785911
0.786185
0.783096
0.787211
0.774986
0.761563
0.760804
1.91009
2.25945
2.25629
2.30484
2.26831
2.83479
2.82628
2.81808
2.81082
2.80556
1.12956
0.761027
0.761077
0.763332
0.769162
0.77045
0.765266
0.761597
0.761028
0.763261
1.95972
2.22
2.24939
2.30389
2.26786
2.83444
2.82512
2.81584
2.80689
2.79871
1.06191
0.869036
0.836086
0.760908
0.760982
0.760984
0.760915
0.760865
1.01071
0.989666
1.95161
2.22
2.25264
2.30637
2.26923
2.83409
2.82402
2.8137
2.80307
2.7921
2.78043
2.76274
2.7479
2.71329
2.66951
2.61473
2.55193
2.49069
2.43645
2.39218
2.35253
2.30653
2.27972
2.31746
2.27447
2.83379
2.82308
2.81192
2.79997
2.78675
2.77141
2.75175
2.72602
2.69368
2.65421
2.60815
2.55754
2.50595
2.45524
2.40516
2.35587
2.30965
2.28316
2.31971
2.27588
2.83357
2.82239
2.81063
2.79785
2.78347
2.76668
2.7463
2.72125
2.69083
2.6547
2.61308
2.56685
2.51745
2.46605
2.41329
2.36063
2.31294
2.28584
2.32145
2.27699
2.83342
2.82195
2.80983
2.79658
2.78164
2.76431
2.74374
2.71914
2.6899
2.65565
2.61637
2.57241
2.52438
2.47297
2.41909
2.36479
2.31584
2.28792
2.32279
2.27788
2.83335
2.82174
2.80945
2.796
2.78084
2.76332
2.74273
2.71838
2.68969
2.65629
2.61804
2.57505
2.52763
2.47629
2.42196
2.36694
2.31729
2.2888
2.32316
2.278
2.83326
2.82147
2.80901
2.79541
2.78011
2.76247
2.74179
2.71735
2.6886
2.65516
2.6169
2.57393
2.52657
2.47535
2.42117
2.36632
2.31684
2.28851
2.32302
2.27791
2.83333
2.82168
2.80939
2.79599
2.78091
2.76347
2.74281
2.71813
2.68881
2.65451
2.61521
2.57125
2.52328
2.472
2.41829
2.36418
2.31542
2.28767
2.32267
2.2778
2.83348
2.82212
2.81019
2.79725
2.78275
2.76587
2.74541
2.72027
2.68976
2.65356
2.61188
2.56564
2.51629
2.46504
2.41249
2.36005
2.31258
2.28566
2.32139
2.27691
2.8337
2.82281
2.81148
2.79939
2.78608
2.77066
2.75094
2.72512
2.69266
2.65307
2.60696
2.5563
2.50471
2.45417
2.40437
2.35535
2.30938
2.28308
2.31973
2.27582
2.834
2.82374
2.81327
2.80251
2.79148
2.77973
2.762
2.73997
2.70783
2.66585
2.61583
2.55974
2.50338
2.43547
2.39145
2.35205
2.3064
2.27979
2.3176
2.27442
2.83434
2.82484
2.81541
2.80637
2.79814
1.07386
1.03805
0.988987
0.923108
1.60766
1.32047
0.988904
1.95486
2.22104
2.25318
2.30676
2.26925
2.8347
2.826
2.81765
2.81032
2.80499
1.1423
0.844566
0.816556
1.95861
2.21992
2.2497
2.30427
2.26783
2.83502
2.82703
2.81956
2.81335
2.80977
1.12191
0.772611
0.773782
0.72318
1.87623
2.25908
2.2566
2.3053
2.26827
2.83525
2.82779
2.82096
2.81543
2.81264
1.41148
0.77661
0.776773
0.77679
0.775764
0.772236
1.90992
2.25751
2.25245
2.30232
2.26728
2.83537
2.82821
2.82171
2.81657
2.81432
0.772618
0.776776
0.775886
0.7759
0.776818
0.773988
2.26794
2.25347
2.24889
2.30013
2.26656
2.83537
2.82821
2.82171
2.81657
2.81472
0.773782
0.77679
0.775903
0.775913
0.776822
0.774082
2.26588
2.25347
2.24889
2.30013
2.26656
2.83525
2.82779
2.82096
2.81543
2.81362
0.775793
0.77683
0.776837
0.775843
0.773819
2.23051
2.25751
2.25244
2.30231
2.26728
2.83501
2.82703
2.81956
2.81335
2.81146
1.19926
0.772284
0.774019
0.774098
0.773843
1.90825
2.25908
2.25659
2.3053
2.26827
2.8347
2.826
2.81765
2.81032
2.80499
1.14204
0.760287
1.95861
2.21992
2.2497
2.30427
2.26783
2.83434
2.82484
2.81541
2.80637
2.79814
1.07385
0.871841
0.837725
0.995781
0.988909
1.95486
2.22104
2.25318
2.30676
2.26925
2.83399
2.82374
2.81327
2.80251
2.79148
2.77973
2.762
2.74721
2.7121
2.66822
2.61353
2.55122
2.48911
2.43546
2.39145
2.35205
2.3064
2.27979
2.3176
2.27442
2.8337
2.82281
2.81148
2.79939
2.78608
2.77066
2.75094
2.72512
2.69266
2.65307
2.60696
2.5563
2.50471
2.45417
2.40436
2.35535
2.30938
2.28308
2.31973
2.27582
2.83348
2.82212
2.81019
2.79725
2.78275
2.76587
2.74541
2.72027
2.68976
2.65355
2.61187
2.56564
2.51629
2.46503
2.41249
2.36005
2.31258
2.28566
2.32139
2.27691
2.83333
2.82168
2.80939
2.79598
2.78091
2.76347
2.74281
2.71813
2.68881
2.65451
2.6152
2.57125
2.52328
2.472
2.41829
2.36418
2.31542
2.28767
2.32267
2.2778
2.83326
2.82147
2.80901
2.79541
2.78011
2.76247
2.74178
2.71735
2.6886
2.65516
2.61689
2.57392
2.52657
2.47535
2.42116
2.36631
2.31684
2.28851
2.32302
2.27791
2.83316
2.82117
2.80852
2.79474
2.77928
2.76152
2.74073
2.71621
2.68741
2.65394
2.61568
2.57275
2.52547
2.47437
2.42034
2.36566
2.31637
2.28821
2.32286
2.27782
2.83323
2.82138
2.80889
2.79531
2.78009
2.76251
2.74175
2.71699
2.68762
2.65328
2.61397
2.57005
2.52215
2.471
2.41745
2.36353
2.31496
2.28738
2.32253
2.27771
2.83337
2.82181
2.80968
2.79657
2.78193
2.76492
2.74437
2.71916
2.68858
2.65232
2.61062
2.56439
2.51511
2.46398
2.41163
2.3594
2.31215
2.28542
2.32129
2.27683
2.83359
2.82249
2.81096
2.7987
2.78526
2.76974
2.74996
2.72406
2.69151
2.65185
2.60572
2.55505
2.50347
2.45306
2.40346
2.3547
2.309
2.28292
2.3197
2.27574
2.83389
2.82341
2.81274
2.80184
2.79069
2.77882
2.76105
2.73902
2.70676
2.6647
2.61466
2.55847
2.50207
2.43448
2.39058
2.35138
2.3061
2.27974
2.31767
2.27436
2.83423
2.82451
2.81489
2.80571
2.79738
1.08105
1.0483
0.985833
0.917417
1.54912
1.30531
0.985799
1.95366
2.22056
2.25318
2.30693
2.26918
2.83459
2.82566
2.81713
2.80968
2.80425
1.15178
0.844126
0.809504
1.95244
2.21816
2.24942
2.30443
2.26771
2.8349
2.82669
2.81905
2.81272
2.80914
1.10479
0.778759
0.778881
0.719828
1.86201
2.25789
2.25659
2.3057
2.26818
2.83513
2.82746
2.82045
2.81482
2.81202
1.38698
0.779279
0.781531
0.78155
0.779102
0.778781
1.87876
2.25664
2.25261
2.30289
2.2672
2.83526
2.82788
2.82121
2.81597
2.8137
0.778756
0.781528
0.78116
0.781178
0.781581
0.778939
2.2682
2.25332
2.24931
2.30087
2.26651
2.83526
2.82788
2.82121
2.81597
2.81409
0.778881
0.781541
0.781175
0.781191
0.781587
0.778939
2.26628
2.25332
2.24931
2.30087
2.26651
2.83513
2.82746
2.82045
2.81481
2.813
0.779115
0.781578
0.78159
0.77912
0.778949
2.22731
2.25663
2.25261
2.30289
2.2672
2.8349
2.82669
2.81905
2.81272
2.81083
1.17171
0.778796
0.778953
0.778946
0.778965
1.88194
2.25789
2.25659
2.3057
2.26818
2.83459
2.82566
2.81713
2.80968
2.80425
1.15021
0.755697
1.95244
2.21815
2.24942
2.30443
2.26771
2.83423
2.82451
2.81489
2.80571
2.79737
1.08104
0.871906
0.836267
0.974929
0.985802
1.95365
2.22056
2.25318
2.30693
2.26918
2.83389
2.82341
2.81274
2.80183
2.79069
2.77882
2.76105
2.74633
2.71071
2.6668
2.61226
2.55053
2.4877
2.43448
2.39058
2.35138
2.3061
2.27974
2.31767
2.27436
2.83359
2.82249
2.81096
2.7987
2.78526
2.76974
2.74996
2.72406
2.69151
2.65185
2.60572
2.55505
2.50347
2.45306
2.40346
2.3547
2.309
2.28292
2.3197
2.27574
2.83337
2.82181
2.80968
2.79657
2.78192
2.76492
2.74437
2.71915
2.68858
2.65232
2.61062
2.56439
2.5151
2.46398
2.41162
2.3594
2.31215
2.28542
2.32129
2.27683
2.83323
2.82138
2.80889
2.79531
2.78008
2.76251
2.74175
2.71699
2.68762
2.65328
2.61397
2.57004
2.52215
2.471
2.41745
2.36353
2.31496
2.28738
2.32253
2.27771
2.83316
2.82117
2.80852
2.79474
2.77928
2.76152
2.74072
2.71621
2.68741
2.65394
2.61567
2.57274
2.52547
2.47437
2.42034
2.36566
2.31637
2.2882
2.32286
2.27782
2.83305
2.82083
2.80796
2.79398
2.77836
2.76045
2.73954
2.71495
2.6861
2.65262
2.61439
2.57152
2.52435
2.47337
2.4195
2.365
2.31588
2.28788
2.32268
2.27772
2.83312
2.82103
2.80832
2.79455
2.77915
2.76143
2.74056
2.71572
2.68631
2.65196
2.61266
2.5688
2.521
2.46999
2.4166
2.36287
2.31448
2.28708
2.32238
2.27762
2.83326
2.82145
2.8091
2.79579
2.78097
2.76383
2.74317
2.71788
2.68725
2.65098
2.60929
2.56311
2.51392
2.46295
2.41077
2.35875
2.31169
2.28515
2.32117
2.27674
2.83347
2.82212
2.81036
2.7979
2.78429
2.76864
2.74876
2.72278
2.69017
2.65048
2.60436
2.55375
2.50227
2.45202
2.4026
2.35405
2.30859
2.28271
2.31964
2.27566
2.83376
2.82303
2.81212
2.80101
2.78971
2.7777
2.75987
2.73784
2.7055
2.66339
2.61332
2.55713
2.50082
2.43354
2.38979
2.35075
2.30575
2.27962
2.31768
2.27429
2.8341
2.82412
2.81426
2.80487
2.79639
1.08299
1.05002
0.985588
0.921389
1.54396
1.30216
0.984718
1.95353
2.22042
2.25319
2.30705
2.26914
2.83445
2.82526
2.81649
2.80885
2.80328
1.15338
0.843895
0.808509
1.95254
2.21804
2.24949
2.30465
2.26768
2.83477
2.82629
2.81841
2.81189
2.80828
1.10425
0.786805
0.786839
0.719266
1.86095
2.25793
2.25678
2.30604
2.26817
2.835