/*--------------------------------*- C++ -*----------------------------------*\
  =========                 |
  \\      /  F ield         | OpenFOAM: The Open Source CFD Toolbox
   \\    /   O peration     | Website:  https://openfoam.org
    \\  /    A nd           | Version:  11
     \\/     M anipulation  |
\*---------------------------------------------------------------------------*/
FoamFile
{
    format      ascii;
    class       volScalarField;
    location    "0.0002";
    object      T;
}
// * * * * * * * * * * * * * * * * * * * * * * * * * * * * * * * * * * * * * //

dimensions      [0 0 0 1 0 0 0];

internalField   nonuniform List<scalar> 
21740
(
299.943
299.83
299.708
299.571
299.413
299.223
298.992
298.7
298.327
297.843
297.213
296.391
295.305
293.837
291.784
288.791
284.215
276.819
263.947
267.776
299.942
299.828
299.704
299.566
299.405
299.214
298.981
298.687
298.307
297.812
297.165
296.322
295.218
293.74
291.688
288.704
284.14
276.756
263.9
267.763
299.941
299.824
299.698
299.555
299.391
299.197
298.962
298.664
298.274
297.755
297.069
296.179
295.036
293.54
291.499
288.545
284.019
276.674
263.861
267.797
299.94
299.82
299.69
299.543
299.374
299.177
298.944
298.646
298.244
297.686
296.928
295.948
294.731
293.201
291.187
288.291
283.828
276.544
263.792
267.835
299.939
299.818
299.685
299.535
299.362
299.165
298.946
298.736
298.369
297.824
297.04
296.002
294.748
292.671
290.718
287.928
283.571
276.376
263.71
267.889
299.939
299.818
299.686
299.538
299.368
299.182
299.029
298.792
298.487
294.122
292.545
290.028
287.436
283.243
276.176
263.618
267.964
299.941
299.824
299.698
299.561
299.412
299.28
299.132
289.741
286.76
282.836
275.954
263.529
268.052
299.944
299.834
299.718
299.599
299.496
299.382
284.174
284.174
288.465
286.808
282.435
275.758
263.47
268.138
299.947
299.844
299.74
299.639
299.563
299.498
284.175
284.045
284.045
284.166
284.178
285.853
282.196
275.659
263.464
268.221
299.949
299.85
299.753
299.666
299.615
284.174
284.045
284.014
284.014
284.045
284.171
285.131
282.015
275.605
263.468
268.276
299.949
299.85
299.753
299.666
299.628
284.174
284.045
284.014
284.014
284.045
284.166
284.933
282.015
275.605
263.468
268.276
299.947
299.844
299.74
299.639
299.593
284.166
284.045
284.045
284.154
284.176
285.475
282.196
275.659
263.464
268.221
299.944
299.834
299.718
299.599
299.532
299.443
284.178
284.171
284.166
284.176
286.29
282.435
275.758
263.47
268.138
299.941
299.824
299.698
299.561
299.412
299.331
289.096
286.76
282.836
275.954
263.529
268.052
299.939
299.818
299.686
299.538
299.368
299.182
299.065
298.876
292.046
290.028
287.436
283.243
276.176
263.618
267.964
299.939
299.818
299.685
299.535
299.362
299.165
298.946
298.761
298.378
297.83
296.978
295.837
294.438
292.671
290.717
287.928
283.571
276.376
263.71
267.889
299.94
299.82
299.69
299.543
299.374
299.177
298.944
298.646
298.244
297.686
296.927
295.948
294.731
293.201
291.187
288.291
283.828
276.544
263.792
267.835
299.941
299.824
299.698
299.555
299.391
299.197
298.962
298.664
298.274
297.755
297.069
296.179
295.036
293.54
291.499
288.545
284.019
276.674
263.861
267.797
299.942
299.828
299.704
299.566
299.405
299.214
298.981
298.687
298.307
297.812
297.165
296.322
295.218
293.74
291.688
288.704
284.14
276.756
263.9
267.763
299.943
299.83
299.708
299.571
299.413
299.223
298.992
298.7
298.327
297.843
297.213
296.391
295.305
293.836
291.784
288.791
284.215
276.819
263.947
267.776
299.943
299.829
299.706
299.568
299.408
299.218
298.985
298.693
298.32
297.835
297.205
296.381
295.294
293.825
291.773
288.781
284.207
276.811
263.941
267.773
299.942
299.826
299.701
299.561
299.399
299.207
298.972
298.678
298.298
297.802
297.154
296.309
295.203
293.724
291.673
288.691
284.129
276.746
263.892
267.759
299.94
299.822
299.694
299.549
299.382
299.185
298.949
298.651
298.262
297.741
297.053
296.159
295.012
293.514
291.475
288.526
284.004
276.662
263.851
267.794
299.939
299.817
299.684
299.534
299.359
299.156
298.921
298.624
298.225
297.667
296.903
295.912
294.685
293.151
291.142
288.26
283.807
276.527
263.779
267.831
299.938
299.814
299.677
299.52
299.336
299.126
298.904
298.71
298.348
297.806
297.017
295.964
294.692
292.576
290.635
287.882
283.544
276.357
263.694
267.886
299.938
299.813
299.676
299.517
299.328
299.115
298.984
298.753
298.46
294.043
292.441
289.896
287.377
283.213
276.155
263.602
267.961
299.939
299.819
299.687
299.538
299.368
299.233
299.078
289.625
286.701
282.805
275.933
263.512
268.05
299.942
299.828
299.707
299.578
299.469
299.341
283.342
283.342
288.379
286.746
282.411
275.74
263.454
268.135
299.945
299.839
299.73
299.622
299.542
299.469
283.345
282.863
282.863
283.323
283.348
285.823
282.18
275.645
263.449
268.219
299.948
299.846
299.745
299.653
299.6
283.342
282.863
282.801
282.801
282.863
283.334
285.106
282.004
275.594
263.454
268.273
299.948
299.846
299.745
299.653
299.615
283.341
282.863
282.801
282.801
282.863
283.322
284.91
282.004
275.594
263.454
268.273
299.945
299.839
299.73
299.622
299.576
283.323
282.863
282.863
283.294
283.346
285.449
282.18
275.645
263.449
268.219
299.942
299.828
299.707
299.578
299.508
299.408
283.349
283.334
283.322
283.346
286.252
282.411
275.74
263.454
268.135
299.939
299.819
299.687
299.538
299.368
299.287
288.997
286.701
282.805
275.933
263.512
268.05
299.938
299.813
299.676
299.517
299.328
299.115
299.013
298.831
291.937
289.896
287.377
283.213
276.155
263.602
267.962
299.938
299.814
299.677
299.52
299.336
299.126
298.904
298.728
298.355
297.812
296.954
295.791
294.37
292.576
290.635
287.882
283.544
276.357
263.695
267.886
299.939
299.817
299.684
299.534
299.359
299.156
298.921
298.624
298.225
297.667
296.903
295.912
294.685
293.151
291.142
288.26
283.807
276.527
263.78
267.831
299.94
299.822
299.694
299.549
299.382
299.185
298.949
298.651
298.261
297.741
297.053
296.159
295.012
293.514
291.475
288.526
284.004
276.662
263.851
267.794
299.942
299.826
299.701
299.561
299.399
299.207
298.972
298.678
298.298
297.802
297.154
296.309
295.203
293.724
291.673
288.691
284.129
276.746
263.892
267.759
299.943
299.829
299.706
299.568
299.408
299.218
298.985
298.693
298.32
297.835
297.205
296.381
295.294
293.825
291.773
288.781
284.207
276.811
263.941
267.773
299.942
299.826
299.701
299.561
299.399
299.207
298.973
298.68
298.306
297.821
297.189
296.364
295.275
293.806
291.756
288.767
284.196
276.804
263.938
267.778
299.941
299.823
299.696
299.553
299.388
299.192
298.956
298.661
298.282
297.784
297.134
296.286
295.177
293.697
291.649
288.672
284.116
276.738
263.888
267.764
299.939
299.818
299.686
299.537
299.365
299.163
298.924
298.626
298.238
297.717
297.023
296.122
294.967
293.467
291.435
288.498
283.986
276.652
263.848
267.802
299.937
299.812
299.673
299.515
299.33
299.115
298.876
298.582
298.188
297.631
296.858
295.846
294.599
293.058
291.064
288.215
283.783
276.516
263.777
267.843
299.935
299.806
299.661
299.491
299.284
299.044
298.816
298.651
298.3
297.767
296.969
295.882
294.571
292.381
290.472
287.812
283.516
276.346
263.694
267.903
299.935
299.804
299.656
299.476
299.243
298.977
298.865
298.65
298.39
293.837
292.186
289.632
287.305
283.188
276.147
263.604
267.983
299.936
299.808
299.665
299.493
299.276
299.106
298.932
289.389
286.603
282.772
275.923
263.514
268.072
299.939
299.818
299.687
299.538
299.406
299.232
281.308
281.31
288.155
286.63
282.373
275.728
263.455
268.154
299.943
299.83
299.712
299.59
299.494
299.397
281.315
280.568
280.568
281.256
281.327
285.737
282.143
275.631
263.448
268.233
299.945
299.838
299.73
299.628
299.568
281.309
280.568
280.461
280.461
280.568
281.283
285.046
281.97
275.579
263.451
268.283
299.945
299.838
299.73
299.628
299.586
281.311
280.569
280.461
280.461
280.568
281.252
284.856
281.97
275.579
263.451
268.283
299.943
299.83
299.712
299.59
299.537
281.257
280.568
280.568
281.185
281.317
285.377
282.143
275.631
263.448
268.233
299.939
299.818
299.687
299.538
299.452
299.317
281.326
281.283
281.253
281.318
286.147
282.373
275.728
263.455
268.154
299.936
299.808
299.665
299.493
299.276
299.17
288.755
286.603
282.772
275.923
263.514
268.072
299.935
299.804
299.656
299.476
299.243
298.977
298.873
298.712
291.643
289.632
287.305
283.188
276.147
263.604
267.983
299.935
299.806
299.661
299.491
299.284
299.044
298.816
298.647
298.297
297.769
296.899
295.687
294.204
292.381
290.472
287.812
283.516
276.346
263.694
267.903
299.937
299.812
299.673
299.515
299.33
299.115
298.876
298.582
298.188
297.631
296.857
295.846
294.599
293.058
291.064
288.215
283.783
276.516
263.777
267.843
299.939
299.818
299.686
299.537
299.364
299.163
298.924
298.626
298.238
297.717
297.023
296.122
294.967
293.467
291.435
288.498
283.987
276.652
263.848
267.802
299.941
299.823
299.696
299.553
299.388
299.192
298.956
298.661
298.281
297.784
297.134
296.286
295.177
293.697
291.649
288.672
284.116
276.738
263.888
267.764
299.942
299.826
299.701
299.561
299.399
299.207
298.973
298.68
298.306
297.821
297.189
296.363
295.275
293.806
291.756
288.767
284.196
276.804
263.938
267.778
299.94
299.822
299.694
299.551
299.386
299.192
298.956
298.662
298.287
297.8
297.166
296.339
295.249
293.78
291.731
288.746
284.181
276.793
263.932
267.781
299.939
299.818
299.688
299.541
299.372
299.173
298.935
298.639
298.258
297.76
297.106
296.254
295.141
293.661
291.616
288.646
284.096
276.725
263.881
267.768
299.937
299.812
299.676
299.521
299.341
299.133
298.89
298.593
298.205
297.683
296.984
296.071
294.907
293.404
291.38
288.459
283.961
276.637
263.84
267.808
299.935
299.804
299.659
299.49
299.291
299.06
298.814
298.525
298.139
297.584
296.796
295.754
294.479
292.925
290.954
288.153
283.75
276.498
263.769
267.852
299.932
299.796
299.641
299.453
299.214
298.936
298.69
298.558
298.228
297.712
296.898
295.753
294.373
292.095
290.261
287.738
283.482
276.329
263.689
267.918
299.931
299.791
299.629
299.419
299.125
725.73
317.043
298.556
298.371
293.493
291.737
559.175
344.229
294.081
279.02
264.614
268.456
299.932
299.795
299.635
299.431
299.14
298.96
298.743
338.239
318.045
288.611
277.463
264.06
268.336
299.935
299.805
299.659
299.482
299.303
299.094
278.314
278.316
291.022
290.254
283.841
276.112
263.596
268.234
299.939
299.818
299.688
299.546
299.418
299.324
278.318
471.236
471.149
278.253
278.333
285.689
282.635
275.747
263.493
268.264
299.941
299.826
299.709
299.594
299.521
278.314
471.195
483.999
483.989
471.249
278.283
284.961
281.94
275.565
263.452
268.291
299.941
299.826
299.709
299.594
299.546
278.317
471.263
483.992
483.993
471.187
278.248
284.779
281.94
275.565
263.452
268.291
299.939
299.818
299.688
299.546
299.478
278.254
471.173
471.253
278.18
278.324
285.286
282.635
275.747
263.493
268.264
299.935
299.805
299.659
299.482
299.364
299.213
278.333
278.283
278.249
278.323
286.48
283.841
276.112
263.596
268.234
299.932
299.795
299.635
299.431
299.14
299.007
301.187
318.047
288.612
277.463
264.06
268.336
299.931
299.791
299.629
299.419
299.125
725.732
315.791
298.608
291.188
559.172
344.231
294.082
279.02
264.614
268.456
299.932
299.796
299.641
299.453
299.214
298.936
298.69
298.51
298.208
297.709
296.82
295.509
293.892
292.095
290.261
287.738
283.482
276.329
263.689
267.918
299.935
299.804
299.659
299.49
299.291
299.06
298.814
298.525
298.139
297.584
296.796
295.754
294.479
292.925
290.954
288.153
283.75
276.498
263.77
267.853
299.937
299.812
299.676
299.521
299.341
299.133
298.89
298.593
298.205
297.683
296.984
296.071
294.907
293.404
291.38
288.459
283.961
276.637
263.84
267.808
299.939
299.818
299.688
299.541
299.372
299.173
298.935
298.639
298.258
297.76
297.106
296.254
295.141
293.661
291.616
288.646
284.096
276.725
263.881
267.768
299.94
299.822
299.694
299.551
299.386
299.192
298.956
298.662
298.287
297.8
297.166
296.339
295.249
293.78
291.731
288.746
284.181
276.794
263.932
267.781
299.939
299.817
299.686
299.54
299.372
299.174
298.936
298.641
298.264
297.776
297.14
296.31
295.218
293.749
291.703
288.723
284.162
276.78
263.925
267.785
299.937
299.813
299.679
299.527
299.354
299.151
298.91
298.612
298.231
297.731
297.074
296.217
295.101
293.62
291.579
288.616
284.074
276.709
263.872
267.772
299.935
299.805
299.663
299.502
299.315
299.099
298.852
298.554
298.168
297.645
296.939
296.015
294.841
293.337
291.322
288.417
283.933
276.619
263.831
267.815
299.932
299.795
299.642
299.463
299.249
299.002
298.748
298.464
298.085
297.531
296.729
295.656
294.355
292.792
290.848
288.09
283.714
276.478
263.761
267.862
299.928
299.784
299.618
299.412
299.144
298.829
298.571
298.454
298.146
297.649
296.819
295.605
294.145
291.861
290.073
287.647
283.44
276.309
263.684
267.932
299.927
299.777
299.6
299.363
299.016
796.435
804.905
836.565
940.586
483.064
548.99
697.36
355.89
296.039
279.516
264.79
268.552
299.927
299.779
299.603
299.366
299.015
738.163
922.914
790.354
354.758
294.752
279.014
264.602
268.593
299.93
299.79
299.628
299.424
299.19
771.647
517.087
516.533
845.711
376.462
285.83
276.626
263.786
268.328
299.934
299.804
299.661
299.498
299.331
645.006
515.836
694.073
694.024
519.88
516.54
365.681
283.325
275.922
263.568
268.298
299.937
299.814
299.685
299.556
299.468
517.106
694.053
705.302
705.288
694.05
518.464
285.982
281.924
275.571
263.47
268.295
299.937
299.813
299.685
299.556
299.5
516.572
694.118
705.309
705.302
694.092
519.888
284.75
281.924
275.571
263.47
268.295
299.934
299.804
299.661
299.498
299.412
519.988
694.075
694.068
525.232
515.997
296.441
283.325
275.922
263.568
268.298
299.93
299.79
299.628
299.424
299.263
742.543
514.926
518.331
519.913
516.046
368.948
285.83
276.626
263.786
268.328
299.927
299.779
299.603
299.366
299.015
738.622
821.761
354.761
294.753
279.014
264.602
268.593
299.927
299.777
299.6
299.363
299.016
796.44
913.357
937.338
701.214
697.357
355.892
296.039
279.517
264.79
268.552
299.928
299.784
299.618
299.412
299.144
298.829
298.571
298.419
298.329
297.646
296.73
295.296
293.648
291.86
290.073
287.647
283.44
276.309
263.684
267.932
299.932
299.795
299.642
299.463
299.249
299.002
298.748
298.464
298.085
297.531
296.729
295.656
294.355
292.792
290.848
288.09
283.714
276.478
263.761
267.862
299.935
299.805
299.663
299.502
299.315
299.099
298.852
298.554
298.168
297.645
296.939
296.015
294.841
293.337
291.322
288.417
283.933
276.619
263.831
267.815
299.937
299.813
299.679
299.527
299.354
299.151
298.91
298.612
298.231
297.731
297.074
296.217
295.101
293.62
291.579
288.616
284.074
276.709
263.872
267.772
299.939
299.817
299.686
299.54
299.372
299.174
298.936
298.641
298.264
297.776
297.14
296.31
295.218
293.749
291.703
288.723
284.162
276.78
263.925
267.785
299.937
299.812
299.677
299.527
299.355
299.154
298.914
298.617
298.239
297.749
297.111
296.279
295.185
293.717
291.674
288.698
284.142
276.766
263.917
267.79
299.935
299.807
299.668
299.513
299.334
299.127
298.883
298.584
298.201
297.7
297.04
296.179
295.059
293.579
291.542
288.585
284.051
276.693
263.863
267.776
299.932
299.798
299.65
299.483
299.288
299.065
298.814
298.515
298.129
297.604
296.892
295.96
294.779
293.274
291.268
288.377
283.905
276.601
263.822
267.821
299.928
299.785
299.625
299.436
299.209
298.949
298.688
298.405
298.03
297.476
296.662
295.567
294.248
292.683
290.76
288.033
283.68
276.459
263.753
267.871
299.924
299.772
299.595
299.374
299.083
298.741
298.471
298.366
298.073
297.586
296.741
295.482
293.972
291.673
289.926
287.569
283.401
276.291
263.679
267.944
299.922
299.763
299.572
299.312
298.928
791.856
814.206
854.826
931.989
479.807
556.925
708.375
353.23
295.271
279.289
264.714
268.531
299.922
299.764
299.572
299.309
298.916
747.514
990.571
853.132
352.311
294.047
278.818
264.543
268.575
299.925
299.774
299.598
299.37
299.1
781.361
749.731
749.264
936.949
374.049
285.473
276.548
263.778
268.322
299.93
299.789
299.634
299.453
299.259
631.858
748.065
825.12
825.101
753.52
748.25
363.087
283.171
275.915
263.593
268.295
299.933
299.8
299.66
299.518
299.418
749.766
825.106
832.921
832.912
825.1
752.12
285.737
281.939
275.615
263.52
268.292
299.933
299.8
299.66
299.518
299.455
749.291
825.16
832.941
832.939
825.143
754.368
284.656
281.939
275.615
263.52
268.292
299.93
299.789
299.634
299.453
299.352
753.563
825.113
825.113
757.992
748.275
295.325
283.171
275.915
263.593
268.295
299.925
299.774
299.598
299.37
299.182
741.177
747.96
752.115
754.384
748.099
366.643
285.473
276.548
263.778
268.322
299.922
299.764
299.572
299.309
298.916
749.519
902.92
352.312
294.047
278.818
264.543
268.575
299.922
299.763
299.572
299.312
298.928
791.857
963.614
995.231
734.491
708.371
353.232
295.271
279.289
264.715
268.531
299.924
299.772
299.595
299.374
299.083
298.741
298.471
298.309
298.116
297.579
296.648
295.146
293.43
291.673
289.926
287.569
283.401
276.292
263.679
267.944
299.928
299.785
299.625
299.436
299.209
298.949
298.688
298.405
298.03
297.475
296.662
295.567
294.248
292.683
290.76
288.033
283.68
276.459
263.753
267.871
299.932
299.798
299.65
299.483
299.288
299.065
298.814
298.515
298.129
297.604
296.892
295.959
294.779
293.274
291.268
288.377
283.905
276.601
263.822
267.821
299.935
299.807
299.668
299.513
299.334
299.127
298.883
298.584
298.201
297.7
297.039
296.178
295.059
293.579
291.542
288.585
284.051
276.693
263.863
267.776
299.937
299.812
299.677
299.527
299.355
299.154
298.914
298.617
298.239
297.749
297.111
296.279
295.185
293.717
291.674
288.698
284.142
276.766
263.917
267.79
299.935
299.806
299.668
299.514
299.338
299.134
298.891
298.592
298.213
297.722
297.082
296.248
295.153
293.685
291.644
288.672
284.122
276.751
263.909
267.794
299.933
299.801
299.658
299.497
299.314
299.103
298.856
298.555
298.171
297.668
297.005
296.141
295.02
293.54
291.507
288.556
284.027
276.676
263.853
267.78
299.93
299.79
299.637
299.463
299.262
299.033
298.778
298.477
298.09
297.563
296.847
295.908
294.723
293.219
291.22
288.34
283.878
276.582
263.813
267.826
299.925
299.776
299.608
299.41
299.173
298.903
298.635
298.351
297.976
297.42
296.597
295.488
294.159
292.596
290.69
287.985
283.648
276.439
263.745
267.879
299.921
299.761
299.574
299.34
299.031
298.669
298.39
298.291
298.005
297.524
296.666
295.373
293.838
291.537
289.819
287.508
283.369
276.275
263.674
267.954
299.917
299.749
299.546
299.269
298.857
789.124
810.677
845.48
914.466
458.329
545.203
702.188
350.025
294.445
279.049
264.633
268.504
299.917
299.749
299.544
299.261
298.837
743.115
991.469
846.694
347.253
292.915
278.512
264.447
268.535
299.92
299.76
299.57
299.323
299.027
762.634
863.161
864.625
937.666
365.341
284.977
276.437
263.76
268.306
299.925
299.775
299.607
299.41
299.197
612.258
864.102
898.222
898.219
872.42
865.67
352.017
282.953
275.9
263.619
268.285
299.928
299.786
299.636
299.48
299.369
863.186
898.214
903.721
903.709
898.189
868.152
285.491
282.027
275.69
263.583
268.29
299.928
299.786
299.636
299.48
299.41
864.778
898.262
903.741
903.748
898.237
872.439
284.579
282.027
275.69
263.583
268.29
299.925
299.775
299.607
299.41
299.298
872.457
898.209
898.214
876.804
861.388
293.538
282.953
275.9
263.619
268.285
299.92
299.76
299.57
299.323
299.114
717.446
865.647
868.16
872.487
861.363
356.975
284.977
276.437
263.76
268.306
299.917
299.749
299.544
299.261
298.836
745.994
900.704
347.253
292.915
278.512
264.447
268.535
299.917
299.749
299.546
299.269
298.857
789.129
962.55
993.358
716.522
702.185
350.026
294.446
279.049
264.633
268.504
299.921
299.761
299.574
299.34
299.031
298.669
298.39
298.22
298.057
297.524
296.577
295.022
293.263
291.537
289.819
287.508
283.369
276.275
263.674
267.954
299.925
299.776
299.608
299.41
299.173
298.903
298.635
298.351
297.976
297.42
296.597
295.488
294.159
292.596
290.69
287.985
283.648
276.44
263.745
267.879
299.93
299.79
299.637
299.463
299.262
299.033
298.778
298.477
298.09
297.563
296.846
295.908
294.723
293.219
291.22
288.34
283.878
276.583
263.813
267.826
299.933
299.801
299.658
299.497
299.314
299.103
298.856
298.555
298.171
297.668
297.005
296.141
295.02
293.54
291.507
288.556
284.027
276.676
263.854
267.78
299.935
299.806
299.668
299.514
299.338
299.134
298.891
298.592
298.213
297.722
297.082
296.248
295.153
293.685
291.644
288.672
284.122
276.751
263.909
267.794
299.933
299.8
299.658
299.5
299.321
299.113
298.868
298.567
298.186
297.694
297.052
296.217
295.121
293.654
291.615
288.647
284.102
276.736
263.9
267.798
299.931
299.794
299.647
299.482
299.295
299.08
298.83
298.527
298.142
297.637
296.972
296.105
294.983
293.503
291.473
288.527
284.004
276.659
263.844
267.784
299.927
299.783
299.625
299.445
299.238
299.004
298.745
298.442
298.054
297.525
296.805
295.862
294.673
293.17
291.176
288.303
283.85
276.563
263.802
267.832
299.922
299.767
299.592
299.387
299.141
298.863
298.59
298.305
297.931
297.373
296.544
295.424
294.088
292.525
290.627
287.937
283.614
276.417
263.733
267.886
299.917
299.75
299.555
299.31
298.989
298.613
298.327
298.229
297.946
297.469
296.601
295.285
293.734
291.435
289.731
287.447
283.329
276.25
263.663
267.962
299.913
299.737
299.524
299.233
298.802
785.37
809.11
835.01
893.124
968.653
968.646
968.68
436.31
534.094
697.621
347.955
293.916
278.884
264.572
268.491
299.913
299.736
299.52
299.222
298.777
740.856
989.484
968.673
968.032
965.319
964.478
967.056
968.549
968.685
836.965
344.097
292.218
278.311
264.375
268.516
299.916
299.746
299.546
299.284
298.97
742.886
968.673
966.626
952.242
931.672
929.998
944.559
961.296
968.38
931.906
358.564
284.65
276.343
263.729
268.302
299.92
299.762
299.584
299.375
299.145
590.002
968.034
952.262
943.981
939.041
939.034
943.96
932.681
964.229
968.643
341.368
282.798
275.858
263.609
268.284
299.924
299.774
299.614
299.448
299.327
968.655
965.321
931.689
939.047
941.28
941.267
939.017
929.928
954.964
968.239
285.283
282.023
275.689
263.588
268.293
299.924
299.774
299.614
299.448
299.371
968.649
964.491
930.062
939.063
941.283
941.284
939.036
933.147
952.843
968.084
284.511
282.023
275.689
263.588
268.293
299.92
299.762
299.584
299.375
299.252
968.682
967.061
944.586
943.986
939.036
939.034
943.961
929.711
960.738
968.519
291.939
282.798
275.858
263.609
268.284
299.916
299.746
299.546
299.284
299.059
691.281
968.552
961.307
932.696
929.945
933.171
929.701
947.586
967.169
968.701
347.628
284.651
276.343
263.729
268.302
299.913
299.736
299.52
299.222
298.777
742.35
968.688
968.382
964.231
954.973
952.869
960.737
967.168
968.651
893.403
344.098
292.219
278.311
264.375
268.516
299.913
299.737
299.524
299.233
298.802
785.377
958.142
987.271
968.644
968.239
968.088
968.518
968.701
695.619
697.619
347.956
293.917
278.885
264.572
268.491
299.917
299.75
299.555
299.31
298.989
298.613
298.327
298.148
298.007
297.474
296.515
294.921
293.137
291.435
289.731
287.447
283.329
276.25
263.663
267.962
299.922
299.767
299.592
299.386
299.141
298.863
298.59
298.305
297.931
297.373
296.544
295.424
294.088
292.525
290.627
287.937
283.614
276.417
263.733
267.886
299.927
299.783
299.625
299.445
299.238
299.004
298.745
298.442
298.054
297.525
296.805
295.862
294.673
293.17
291.176
288.303
283.85
276.563
263.802
267.832
299.931
299.794
299.647
299.482
299.295
299.08
298.829
298.527
298.142
297.637
296.972
296.105
294.982
293.503
291.473
288.527
284.004
276.659
263.844
267.784
299.933
299.8
299.658
299.5
299.321
299.113
298.868
298.567
298.186
297.694
297.052
296.217
295.121
293.654
291.615
288.647
284.102
276.736
263.9
267.798
299.931
299.794
299.648
299.486
299.303
299.093
298.845
298.542
298.16
297.666
297.024
296.187
295.091
293.624
291.588
288.623
284.082
276.722
263.892
267.801
299.929
299.788
299.636
299.467
299.275
299.057
298.804
298.5
298.113
297.607
296.94
296.072
294.948
293.468
291.44
288.498
283.981
276.642
263.834
267.787
299.925
299.775
299.612
299.427
299.215
298.977
298.715
298.411
298.022
297.492
296.769
295.822
294.63
293.125
291.134
288.267
283.822
276.543
263.791
267.837
299.919
299.758
299.577
299.365
299.113
298.829
298.554
298.268
297.895
297.338
296.504
295.377
294.033
292.464
290.568
287.887
283.576
276.391
263.718
267.892
299.913
299.74
299.537
299.284
298.955
298.573
298.284
298.185
297.905
297.428
296.559
295.236
293.668
291.355
289.65
287.376
283.276
276.215
263.643
267.971
299.909
299.726
299.504
299.203
298.764
776.334
798.702
830.851
878.584
449.186
535.967
697.628
347.132
293.702
278.798
264.53
268.495
299.909
299.724
299.499
299.191
298.738
732.543
988.733
841.522
344.055
292.149
278.254
264.338
268.528
299.912
299.734
299.525
299.256
298.931
747.952
961.17
960.336
935.269
357.005
284.588
276.276
263.681
268.315
299.916
299.751
299.566
299.35
299.111
595.138
955.904
958.143
958.133
956.711
961.14
344.278
282.745
275.778
263.548
268.299
299.92
299.763
299.596
299.425
299.298
961.183
958.152
958.448
958.438
958.125
959.671
285.197
281.855
275.571
263.507
268.303
299.92
299.763
299.596
299.425
299.343
960.37
958.154
958.448
958.437
958.127
959.199
284.449
281.855
275.571
263.507
268.303
299.916
299.751
299.565
299.35
299.221
956.734
958.143
958.132
956.396
960.233
291.965
282.745
275.778
263.548
268.299
299.912
299.734
299.525
299.256
299.023
699.998
961.16
959.693
959.217
960.235
347.85
284.588
276.276
263.681
268.315
299.909
299.724
299.499
299.191
298.738
733.962
897.144
344.056
292.15
278.254
264.338
268.528
299.909
299.726
299.504
299.203
298.764
776.342
954.756
985.095
705.861
697.624
347.133
293.703
278.798
264.53
268.495
299.913
299.74
299.537
299.284
298.955
298.573
298.284
298.098
297.942
297.424
296.464
294.868
293.071
291.355
289.65
287.376
283.276
276.215
263.643
267.971
299.919
299.758
299.577
299.365
299.113
298.829
298.554
298.268
297.895
297.337
296.504
295.377
294.033
292.464
290.568
287.887
283.576
276.391
263.718
267.892
299.925
299.775
299.612
299.427
299.215
298.977
298.715
298.411
298.022
297.492
296.769
295.822
294.63
293.125
291.134
288.267
283.822
276.543
263.791
267.837
299.929
299.788
299.636
299.467
299.275
299.057
298.804
298.5
298.113
297.607
296.94
296.072
294.948
293.468
291.44
288.499
283.981
276.642
263.834
267.787
299.931
299.794
299.648
299.486
299.303
299.093
298.845
298.542
298.16
297.666
297.024
296.187
295.091
293.624
291.588
288.623
284.082
276.722
263.892
267.801
299.929
299.788
299.638
299.472
299.286
299.072
298.822
298.517
298.134
297.639
296.995
296.158
295.062
293.596
291.562
288.6
284.063
276.708
263.883
267.805
299.926
299.781
299.625
299.452
299.257
299.035
298.779
298.473
298.086
297.578
296.91
296.04
294.916
293.437
291.411
288.472
283.96
276.626
263.824
267.791
299.922
299.768
299.6
299.41
299.193
298.951
298.687
298.382
297.992
297.461
296.736
295.786
294.591
293.085
291.096
288.234
283.795
276.523
263.779
267.841
299.916
299.75
299.563
299.345
299.087
298.799
298.521
298.235
297.863
297.305
296.47
295.338
293.987
292.412
290.517
287.841
283.54
276.365
263.703
267.898
299.91
299.73
299.521
299.261
298.925
298.538
298.247
298.148
297.869
297.393
296.524
295.199
293.619
291.29
289.582
287.312
283.226
276.179
263.621
267.978
299.906
299.715
299.486
299.178
298.731
770.823
790.553
833.144
883.451
466.101
541.749
699.316
347.099
293.661
278.757
264.502
268.505
299.905
299.713
299.48
299.164
298.704
726.189
988.913
848.755
344.926
292.269
278.245
264.315
268.547
299.908
299.723
299.507
299.231
298.899
759.325
965.956
965.878
939.627
359.558
284.602
276.221
263.631
268.333
299.913
299.74
299.548
299.327
299.084
605.448
965.032
964.595
964.584
965.213
965.893
349.938
282.69
275.685
263.472
268.316
299.916
299.752
299.58
299.405
299.273
965.966
964.602
964.593
964.583
964.576
965.737
285.15
281.695
275.438
263.41
268.317
299.916
299.752
299.58
299.405
299.319
965.899
964.603
964.593
964.582
964.576
965.671
284.396
281.695
275.438
263.41
268.317
299.913
299.74
299.548
299.327
299.195
965.234
964.594
964.584
965.054
965.832
292.35
282.69
275.685
263.472
268.316
299.908
299.723
299.507
299.231
298.993
716.275
965.91
965.756
965.684
965.836
352.607
284.602
276.221
263.631
268.333
299.905
299.713
299.48
299.164
298.704
728.448
902.737
344.926
292.269
278.245
264.315
268.547
299.906
299.715
299.486
299.177
298.731
770.833
954.335
986.523
720.827
699.314
347.1
293.661
278.757
264.502
268.505
299.91
299.73
299.521
299.261
298.925
298.538
298.247
298.058
297.886
297.378
296.419
294.827
293.024
291.29
289.582
287.312
283.226
276.179
263.621
267.978
299.916
299.75
299.563
299.345
299.087
298.799
298.521
298.235
297.863
297.305
296.47
295.338
293.987
292.412
290.517
287.841
283.54
276.365
263.703
267.898
299.922
299.768
299.6
299.41
299.193
298.951
298.687
298.382
297.992
297.461
296.736
295.786
294.591
293.085
291.096
288.234
283.795
276.523
263.779
267.841
299.926
299.781
299.625
299.452
299.257
299.035
298.779
298.473
298.086
297.578
296.91
296.04
294.915
293.437
291.411
288.472
283.96
276.626
263.824
267.791
299.929
299.788
299.638
299.472
299.286
299.072
298.822
298.517
298.134
297.639
296.995
296.158
295.062
293.596
291.562
288.601
284.063
276.708
263.883
267.804
299.926
299.782
299.628
299.458
299.268
299.051
298.798
298.492
298.108
297.612
296.968
296.13
295.034
293.57
291.538
288.58
284.046
276.695
263.876
267.808
299.924
299.775
299.614
299.437
299.237
299.012
298.754
298.446
298.058
297.55
296.881
296.011
294.886
293.408
291.384
288.449
283.941
276.612
263.815
267.794
299.919
299.761
299.588
299.393
299.172
298.926
298.659
298.352
297.962
297.43
296.705
295.753
294.557
293.051
291.064
288.206
283.772
276.506
263.769
267.845
299.913
299.741
299.549
299.326
299.062
298.77
298.489
298.202
297.829
297.271
296.434
295.3
293.946
292.37
290.476
287.805
283.511
276.344
263.69
267.903
299.907
299.721
299.505
299.238
298.896
298.504
298.209
298.11
297.831
297.356
296.486
295.156
293.572
291.238
289.531
287.266
283.188
276.151
263.604
267.984
299.902
299.705
299.469
299.153
298.698
769.044
788.859
832.921
879.129
467.385
542.761
699.738
346.952
293.593
278.716
264.478
268.511
299.901
299.702
299.462
299.139
298.67
724.839
988.728
849.568
344.768
292.204
278.2
264.284
268.555
299.904
299.712
299.489
299.206
298.867
759.368
966.592
966.577
940.166
359.658
284.525
276.163
263.59
268.342
299.909
299.729
299.531
299.303
299.054
603.81
966.492
966.21
966.2
966.493
966.568
348.442
282.607
275.615
263.42
268.326
299.912
299.742
299.563
299.382
299.246
966.603
966.219
966.214
966.203
966.19
966.547
285.066
281.624