/*--------------------------------*- C++ -*----------------------------------*\
  =========                 |
  \\      /  F ield         | OpenFOAM: The Open Source CFD Toolbox
   \\    /   O peration     | Website:  https://openfoam.org
    \\  /    A nd           | Version:  11
     \\/     M anipulation  |
\*---------------------------------------------------------------------------*/
FoamFile
{
    format      ascii;
    class       volVectorField;
    location    "0.0002";
    object      U;
}
// * * * * * * * * * * * * * * * * * * * * * * * * * * * * * * * * * * * * * //

dimensions      [0 1 -1 0 0 0 0];

internalField   nonuniform List<vector> 
21740
(
(5.50264 -0.00885585 0.00672412)
(5.76422 -0.0270654 0.0206067)
(6.26833 -0.0467289 0.0347606)
(7.04992 -0.0677052 0.0489046)
(8.14919 -0.0881771 0.0625023)
(9.61611 -0.102178 0.0747109)
(11.5005 -0.0963877 0.0848403)
(13.8362 -0.0484502 0.0932107)
(16.6266 0.064304 0.101151)
(19.844 0.258119 0.110042)
(23.4621 0.518993 0.120052)
(27.5151 0.794834 0.128844)
(32.1452 1.01772 0.131774)
(37.5883 1.13373 0.124705)
(44.0789 1.11834 0.107557)
(51.6463 0.997527 0.0844752)
(59.7408 0.820348 0.0616283)
(66.5761 0.62441 0.0429046)
(67.121 0.429625 0.0288352)
(72.8082 0.226088 0.0158422)
(5.46658 -0.0281822 0.00733715)
(5.72673 -0.0864751 0.0226534)
(6.22885 -0.150262 0.0386355)
(7.01071 -0.220308 0.0551258)
(8.11872 -0.292942 0.0713185)
(9.61439 -0.352345 0.0856678)
(11.5629 -0.358677 0.0969351)
(14.0086 -0.234713 0.105352)
(16.9498 0.0927564 0.113409)
(20.3217 0.692004 0.124483)
(24.0332 1.52472 0.14015)
(28.0655 2.41591 0.156339)
(32.5505 3.13384 0.163841)
(37.7687 3.50117 0.155047)
(44.0351 3.42835 0.129004)
(51.4508 3.02669 0.0932175)
(59.4802 2.46593 0.061372)
(66.3037 1.86521 0.0396162)
(66.8502 1.2815 0.0260677)
(72.5131 0.676257 0.0144679)
(5.387 -0.0517721 0.00851946)
(5.64202 -0.160315 0.0267174)
(6.13551 -0.283111 0.0465073)
(6.91001 -0.425969 0.0681231)
(8.02388 -0.589782 0.0903243)
(9.56501 -0.756351 0.109707)
(11.6379 -0.8582 0.122736)
(14.3165 -0.720914 0.129871)
(17.5966 -0.226393 0.136669)
(21.3264 0.842292 0.151628)
(25.2423 2.44694 0.181602)
(29.1903 4.20024 0.21896)
(33.2735 5.59012 0.241875)
(37.8898 6.31198 0.232305)
(43.5831 6.09645 0.183713)
(50.6308 5.2642 0.112672)
(58.5167 4.19741 0.0584544)
(65.33 3.12133 0.0313941)
(65.9138 2.1197 0.0196338)
(71.6092 1.11425 0.0112484)
(5.25237 -0.0808126 0.0102111)
(5.49507 -0.253216 0.0326852)
(5.96526 -0.456191 0.0585759)
(6.70997 -0.708225 0.0891678)
(7.80239 -1.02594 0.123004)
(9.37842 -1.40172 0.152724)
(11.6242 -1.77884 0.167105)
(14.7015 -1.61684 0.165653)
(18.5954 -1.13714 0.166586)
(23.0734 0.577489 0.186904)
(27.46 3.35477 0.242852)
(31.2874 6.55169 0.330587)
(34.6668 8.87333 0.396531)
(38.1288 9.91428 0.392324)
(42.8002 9.39141 0.299076)
(49.2765 7.83848 0.141)
(57.0285 6.05329 0.0435021)
(63.9055 4.38683 0.0125318)
(64.5859 2.92218 0.00691237)
(70.3349 1.51933 0.00500894)
(5.05016 -0.113549 0.0121414)
(5.2675 -0.361192 0.0397624)
(5.68698 -0.66621 0.073498)
(6.35526 -1.07145 0.117127)
(7.35387 -1.62885 0.169712)
(8.87499 -2.4057 0.214531)
(10.9767 -3.05797 0.229705)
(13.8675 -5.27253 0.11604)
(18.1775 -4.87521 0.10792)
(23.8139 -4.11707 0.13614)
(29.3338 -0.812763 0.161594)
(33.3293 3.31774 0.258344)
(34.9851 7.28384 0.315692)
(37.534 14.9362 0.697018)
(41.2715 13.6161 0.518427)
(46.9613 10.8444 0.160669)
(54.7328 8.0198 -0.00227512)
(61.8622 5.60984 -0.0226035)
(62.7715 3.64244 -0.0140819)
(68.6576 1.86594 -0.00452521)
(4.77426 -0.144015 0.014172)
(4.94553 -0.466118 0.0474027)
(5.26943 -0.883648 0.0911972)
(5.77799 -1.48373 0.156416)
(6.54265 -2.41306 0.254635)
(7.60713 -3.63726 0.369842)
(9.82105 -5.76461 0.134179)
(13.662 -8.21184 0.19661)
(13.4334 -5.73947 0.0853054)
(39.1457 11.9121 0.404295)
(36.422 16.382 0.547384)
(37.4303 19.6438 0.7454)
(43.1815 14.3886 0.0858884)
(51.4149 10.0541 -0.120863)
(59.1196 6.68032 -0.0801525)
(60.4744 4.18799 -0.0409419)
(66.6317 2.10522 -0.0155934)
(4.43557 -0.160689 0.0151102)
(4.53247 -0.527567 0.0505996)
(4.69442 -1.0183 0.0971316)
(4.91218 -1.74121 0.165803)
(5.2231 -2.85763 0.264781)
(6.18461 -5.41487 0.162219)
(5.68993 -5.52299 0.188038)
(32.9083 24.1823 0.588882)
(37.4314 17.3195 0.0169033)
(46.9882 11.0771 -0.142408)
(55.6439 7.06923 -0.096123)
(57.7455 4.30931 -0.0536382)
(64.3508 2.12478 -0.0211005)
(4.08047 -0.151542 0.0151774)
(4.08662 -0.503845 0.0500208)
(4.04828 -0.991732 0.0936268)
(3.96138 -1.74141 0.154659)
(4.29106 -3.64893 0.105494)
(4.7147 -4.94119 0.127353)
(0.00569585 -0.0335265 1.61123)
(0.00373292 -0.0399454 1.62955)
(16.4807 25.4516 0.0764757)
(28.0181 15.9147 0.17717)
(41.7359 11.3174 -0.0666657)
(51.8538 6.65752 -0.0711394)
(54.8833 3.93377 -0.049341)
(62.0748 1.89803 -0.0207195)
(3.77919 -0.109711 0.0146473)
(3.70041 -0.367871 0.0470745)
(3.47388 -0.733546 0.0844429)
(3.02472 -1.31084 0.130369)
(2.78292 -2.35274 0.0831185)
(1.48045 -3.42721 0.134648)
(-0.0221179 -0.0198293 1.63094)
(-0.161261 -0.252564 3.18404)
(0.163581 -0.253316 3.18377)
(-0.222358 -0.051679 1.65549)
(-0.0214438 -0.0253893 1.6527)
(19.2082 19.9575 0.225132)
(35.8098 8.25141 0.000795208)
(48.1661 4.88884 -0.0337208)
(52.3624 2.82163 -0.0363595)
(60.1509 1.34463 -0.0171986)
(3.60458 -0.0399121 0.0141258)
(3.47284 -0.133698 0.0444465)
(3.12658 -0.265092 0.0767622)
(2.45327 -0.474068 0.111362)
(1.7428 -1.15643 0.0611182)
(-0.0340361 0.00753839 1.6111)
(-0.253265 -0.160327 3.18435)
(-0.0759056 -0.073998 3.10868)
(0.0767104 -0.0754886 3.10946)
(0.253976 -0.163054 3.18546)
(-0.213222 -0.0288896 1.671)
(7.50467 10.4578 0.0774)
(32.25 2.95229 0.022014)
(45.8794 1.67872 -0.0146645)
(50.8263 0.967585 -0.0278463)
(58.9988 0.463206 -0.0148321)
(3.60458 0.039916 0.0141259)
(3.47285 0.133712 0.044447)
(3.12658 0.265119 0.076763)
(2.45329 0.474113 0.111366)
(1.36395 0.41143 0.059747)
(-0.0406374 0.0046287 1.62832)
(-0.254014 0.165119 3.18288)
(-0.0765169 0.0788408 3.10958)
(0.0747864 0.0768887 3.10715)
(0.25342 0.161153 3.18471)
(-0.241158 0.0192542 1.67361)
(5.98231 -3.70413 0.0589158)
(32.2501 -2.9524 0.022019)
(45.8794 -1.67897 -0.0145836)
(50.8262 -0.967974 -0.0277489)
(58.9989 -0.463579 -0.0147827)
(3.77921 0.109716 0.0146477)
(3.70043 0.367887 0.0470757)
(3.47391 0.733577 0.084445)
(3.02487 1.3109 0.130365)
(1.83173 1.84122 0.0723676)
(-0.0523213 -0.220041 1.65513)
(-0.164283 0.256194 3.18715)
(0.159392 0.254549 3.18403)
(-0.243433 -0.240076 1.64277)
(0.00714358 0.0291705 1.68412)
(11.833 -15.8524 0.204526)
(35.8096 -8.25154 0.00087823)
(48.1662 -4.88919 -0.0335172)
(52.3623 -2.82196 -0.0361696)
(60.1512 -1.34494 -0.0171004)
(4.0805 0.151549 0.0151781)
(4.08666 0.503865 0.0500232)
(4.04832 0.991765 0.0936319)
(3.96145 1.74145 0.154673)
(3.08838 2.65311 0.0985391)
(1.95478 4.7096 0.132039)
(-0.0241195 -0.0214973 1.64948)
(-0.0311541 -0.212819 1.67223)
(0.0167531 -0.239826 1.67351)
(0.0291872 0.00736778 1.68469)
(22.9511 -19.827 0.155728)
(41.7358 -11.3175 -0.0666458)
(51.8534 -6.65785 -0.0710369)
(54.8833 -3.93399 -0.0492186)
(62.0751 -1.89821 -0.0206498)
(4.43561 0.160697 0.0151113)
(4.53252 0.527592 0.0506028)
(4.69447 1.01833 0.0971374)
(4.91223 1.74124 0.165811)
(5.22317 2.85763 0.264796)
(4.33291 4.3337 0.163997)
(21.6238 -29.481 0.318359)
(37.4311 -17.3197 0.0168779)
(46.9877 -11.0771 -0.142379)
(55.6439 -7.06938 -0.0961293)
(57.7455 -4.30944 -0.0536369)
(64.3513 -2.12484 -0.0210863)
(4.77432 0.144024 0.0141731)
(4.94559 0.46615 0.0474062)
(5.26948 0.883705 0.0912034)
(5.77802 1.48382 0.156427)
(6.54268 2.41318 0.25463)
(7.60774 3.63741 0.369832)
(8.74844 6.90818 0.191285)
(9.12237 5.89384 0.124609)
(37.55 -16.9634 0.593929)
(37.4301 -19.6437 0.745197)
(43.1806 -14.3882 0.0856692)
(51.4146 -10.0539 -0.12098)
(59.1195 -6.68026 -0.0801881)
(60.4745 -4.18797 -0.0409454)
(66.6322 -2.10516 -0.0155806)
(5.05024 0.113559 0.0121429)
(5.26759 0.361225 0.0397658)
(5.68708 0.666274 0.0735038)
(6.35539 1.07157 0.117136)
(7.35405 1.62907 0.169705)
(8.87526 2.40601 0.214538)
(10.9771 3.05804 0.229718)
(12.6781 4.19426 0.112302)
(19.6135 8.19914 0.268741)
(25.2288 1.96791 0.120606)
(32.0253 -1.25451 0.131681)
(36.2838 -7.28597 0.039349)
(36.8796 -14.515 0.287491)
(37.5334 -14.936 0.696739)
(41.2709 -13.6164 0.518203)
(46.961 -10.8446 0.160433)
(54.7324 -8.01991 -0.00244593)
(61.8621 -5.60983 -0.0226537)
(62.7716 -3.64237 -0.0140593)
(68.658 -1.86583 -0.00450589)
(5.25247 0.08082 0.0102122)
(5.49518 0.253239 0.0326878)
(5.96539 0.456233 0.0585799)
(6.71013 0.708289 0.0891733)
(7.80259 1.02601 0.123012)
(9.37866 1.4018 0.152734)
(11.6244 1.77887 0.167109)
(14.7018 1.61681 0.165644)
(18.5957 1.13715 0.166576)
(23.0737 -0.577547 0.186862)
(27.46 -3.35497 0.242766)
(31.2871 -6.55202 0.330492)
(34.6663 -8.87331 0.396556)
(38.1284 -9.91468 0.392295)
(42.7998 -9.3915 0.298967)
(49.2761 -7.83849 0.141015)
(57.0283 -6.05328 0.0435092)
(63.9054 -4.38678 0.0125588)
(64.586 -2.92214 0.00691533)
(70.3353 -1.5193 0.00501525)
(5.38712 0.051777 0.00852033)
(5.64215 0.16033 0.0267194)
(6.13565 0.283137 0.0465102)
(6.91018 0.426004 0.0681269)
(8.02408 0.589822 0.0903286)
(9.56524 0.756389 0.10971)
(11.6381 0.858224 0.122736)
(14.3168 0.720937 0.129865)
(17.5969 0.226417 0.136639)
(21.3266 -0.842383 0.151582)
(25.2423 -2.44711 0.181578)
(29.1901 -4.20044 0.218906)
(33.2731 -5.59026 0.241952)
(37.8893 -6.31197 0.232581)
(43.5827 -6.09635 0.183899)
(50.6304 -5.2642 0.112657)
(58.5165 -4.1974 0.0584082)
(65.33 -3.12134 0.0313838)
(65.914 -2.11958 0.0195106)
(71.6096 -1.11407 0.0110877)
(5.4667 0.0281849 0.00733788)
(5.72686 0.0864833 0.022655)
(6.229 0.150276 0.0386377)
(7.01089 0.220325 0.0551285)
(8.11892 0.292962 0.0713212)
(9.61462 0.352362 0.0856697)
(11.5632 0.358688 0.0969345)
(14.0088 0.234718 0.105347)
(16.95 -0.0927578 0.113391)
(20.3219 -0.69206 0.124458)
(24.0332 -1.52482 0.140128)
(28.0652 -2.41603 0.156319)
(32.5502 -3.13388 0.163824)
(37.7683 -3.50128 0.155184)
(44.0346 -3.42846 0.129172)
(51.4504 -3.02671 0.0932179)
(59.48 -2.46594 0.0612818)
(66.3038 -1.86521 0.0396323)
(66.8505 -1.28158 0.0259561)
(72.5134 -0.676372 0.0143078)
(5.50276 0.00885673 0.0067248)
(5.76436 0.0270679 0.0206081)
(6.26848 0.046733 0.0347625)
(7.05009 0.0677106 0.0489068)
(8.14939 0.0881831 0.0625042)
(9.61634 0.102184 0.074712)
(11.5007 0.0963908 0.0848393)
(13.8364 0.0484507 0.0932061)
(16.6268 -0.0643109 0.101142)
(19.8441 -0.258144 0.110029)
(23.462 -0.51903 0.120037)
(27.5149 -0.794874 0.128828)
(32.1448 -1.01775 0.131761)
(37.5879 -1.13372 0.124694)
(44.0785 -1.11831 0.107549)
(51.646 -0.997503 0.0844609)
(59.7406 -0.820391 0.061651)
(66.5761 -0.624417 0.0429169)
(67.1212 -0.42959 0.0288433)
(72.8086 -0.226033 0.0158518)
(5.52365 -0.00842847 0.0197872)
(5.78572 -0.0256521 0.0603823)
(6.29018 -0.0440268 0.10138)
(7.0717 -0.0633512 0.142068)
(8.1701 -0.0819612 0.180913)
(9.63538 -0.0943071 0.215747)
(11.5181 -0.0876168 0.245161)
(13.8535 -0.039496 0.269998)
(16.6459 0.0735774 0.293529)
(19.8668 0.26899 0.319724)
(23.4872 0.533805 0.349257)
(27.5379 0.815048 0.375652)
(32.1594 1.04177 0.386052)
(37.5903 1.15712 0.369454)
(44.0704 1.13574 0.323644)
(51.6342 1.00625 0.258419)
(59.7324 0.822667 0.191145)
(66.5747 0.624342 0.13375)
(67.125 0.42938 0.0886394)
(72.8139 0.225931 0.0472923)
(5.4895 -0.0269127 0.0213953)
(5.75059 -0.0821339 0.0657895)
(6.25376 -0.141977 0.111524)
(7.03629 -0.206707 0.158199)
(8.14372 -0.272977 0.203798)
(9.63723 -0.32662 0.244582)
(11.5832 -0.330373 0.277151)
(14.0284 -0.206656 0.302787)
(16.9732 0.120817 0.327847)
(20.3528 0.724513 0.360447)
(24.0714 1.57115 0.405217)
(28.1033 2.48292 0.45272)
(32.5762 3.2165 0.478443)
(37.7743 3.58294 0.460082)
(44.0231 3.48816 0.392313)
(51.4341 3.05315 0.293648)
(59.4722 2.47049 0.201399)
(66.3073 1.8631 0.13399)
(66.8607 1.27926 0.0871409)
(72.5249 0.675357 0.0463731)
(5.41371 -0.0497486 0.0245312)
(5.67073 -0.153187 0.0766253)
(6.16702 -0.268808 0.132475)
(6.9442 -0.401179 0.192815)
(8.05835 -0.551147 0.254961)
(9.5954 -0.704351 0.310632)
(11.662 -0.803275 0.349454)
(14.3389 -0.670654 0.373719)
(17.6269 -0.180272 0.39813)
(21.3756 0.894628 0.442113)
(25.3123 2.52995 0.525366)
(29.2647 4.33428 0.632079)
(33.3226 5.76419 0.702144)
(37.8926 6.48775 0.681473)
(43.5455 6.21914 0.554215)
(50.5876 5.30095 0.36008)
(58.5008 4.1904 0.207444)
(65.3397 3.10902 0.124655)
(65.9341 2.11228 0.079773)
(71.6311 1.11121 0.0431237)
(5.28464 -0.0782396 0.0290395)
(5.53142 -0.243859 0.0926857)
(6.00833 -0.436529 0.165176)
(6.76109 -0.671626 0.250991)
(7.85737 -0.964344 0.348551)
(9.42356 -1.31554 0.438599)
(11.6537 -1.68939 0.483409)
(14.7245 -1.54482 0.495154)
(18.635 -1.08164 0.50495)
(23.1595 0.637596 0.559672)
(27.6013 3.47113 0.722065)
(31.4499 6.78259 0.976482)
(34.7771 9.20238 1.15848)
(38.1313 10.2501 1.1428)
(42.6997 9.6144 0.877633)
(49.1717 7.85866 0.428859)
(57.0051 6.00644 0.167121)
(63.9355 4.35236 0.0850479)
(64.6277 2.90423 0.0575395)
(70.3747 1.51218 0.0335479)
(5.08896 -0.110722 0.0342856)
(5.31366 -0.350532 0.112265)
(5.74676 -0.641974 0.208014)
(6.4339 -1.02019 0.335833)
(7.44369 -1.5258 0.503884)
(8.94686 -2.23747 0.671601)
(11.0138 -2.91751 0.717942)
(13.8465 -5.24085 0.550843)
(18.2133 -4.92664 0.527025)
(23.8814 -4.16011 0.552954)
(29.5228 -0.798345 0.70225)
(33.6232 3.53335 1.06931)
(35.2688 7.5712 1.44249)
(37.4623 15.4135 2.07426)
(41.0142 13.9347 1.50966)
(46.7187 10.7718 0.386261)
(54.7128 7.88447 -0.00511307)
(61.9401 5.54132 -0.0115762)
(62.8497 3.61247 0.00972869)
(68.7235 1.85483 0.0138414)
(4.82012 -0.141885 0.0392999)
(5.00367 -0.458202 0.13189)
(5.35438 -0.865971 0.255676)
(5.91104 -1.44747 0.44996)
(6.72655 -2.34608 0.783614)
(7.69776 -3.5467 1.32177)
(9.72156 -5.74972 0.879495)
(13.5949 -8.12113 0.805185)
(13.3772 -5.67684 0.614877)
(39.3815 11.8961 2.12988)
(36.5488 16.7345 2.36245)
(36.9223 19.7287 2.3215)
(42.7454 14.2717 -0.177639)
(51.4576 9.94052 -0.486896)
(59.2984 6.6242 -0.197377)
(60.6057 4.1622 -0.0660012)
(66.728 2.09627 -0.0143017)
(4.48443 -0.159972 0.0420056)
(4.59468 -0.525603 0.141549)
(4.78509 -1.01583 0.27556)
(5.05062 -1.7414 0.485058)
(5.39914 -2.86473 0.834747)
(6.24935 -5.55644 0.934653)
(5.66518 -5.49503 0.981236)
(32.775 23.9632 1.85911)
(37.0927 17.2877 -0.484999)
(47.0864 11.0962 -0.60226)
(55.8463 7.06519 -0.266835)
(57.8934 4.30149 -0.105882)
(64.4605 2.12206 -0.0288438)
(4.12884 -0.151907 0.0421941)
(4.14657 -0.506491 0.140545)
(4.13172 -1.00109 0.268859)
(4.08323 -1.76854 0.459942)
(4.37498 -3.77482 0.585195)
(4.79854 -5.01397 0.859551)
(0.0136531 -0.0738443 8.25181)
(0.00296001 -0.0774921 8.24633)
(16.2327 25.1724 0.725379)
(28.1621 16.1298 -0.0614502)
(41.8553 11.3764 -0.359926)
(52.0127 6.68435 -0.237909)
(55.0118 3.94055 -0.107558)
(62.1788 1.89965 -0.03055)
(3.82491 -0.110528 0.0407688)
(3.75432 -0.372085 0.133047)
(3.54248 -0.74627 0.246432)
(3.1127 -1.34519 0.400085)
(2.84151 -2.4188 0.496124)
(1.5161 -3.51378 0.652907)
(-0.0288143 -0.0320741 8.3031)
(-0.277113 -0.415895 10.2448)
(0.280544 -0.416607 10.2478)
(-0.697216 -0.109449 8.35006)
(-0.0493338 -0.0519433 8.28741)
(19.0845 19.9632 -0.146418)
(35.8967 8.29731 -0.297916)
(48.2833 4.91491 -0.202823)
(52.4695 2.83185 -0.095797)
(60.244 1.34735 -0.0290346)
(3.6479 -0.0402903 0.039368)
(3.52151 -0.135594 0.126067)
(3.1823 -0.270621 0.22582)
(2.51158 -0.488856 0.342831)
(1.75601 -1.1948 0.379874)
(-0.0744848 0.00750836 8.25064)
(-0.415647 -0.277699 10.2464)
(-0.122647 -0.122137 10.0822)
(0.124993 -0.12326 10.0831)
(0.417376 -0.278789 10.2479)
(-0.646012 -0.0498341 8.31688)
(7.40569 10.5136 -0.286838)
(32.3012 2.96387 -0.244392)
(45.969 1.685 -0.169556)
(50.9184 0.970245 -0.0827589)
(59.0826 0.463652 -0.0268389)
(3.6479 0.0402945 0.0393682)
(3.52151 0.13561 0.126068)
(3.18231 0.270651 0.225818)
(2.5116 0.488901 0.342831)
(1.36314 0.426269 0.35247)
(-0.0790485 0.00607307 8.25795)
(-0.416556 0.281065 10.244)
(-0.122692 0.125811 10.0838)
(0.123648 0.124606 10.0834)
(0.416676 0.278494 10.246)
(-0.727108 0.0422193 8.34037)
(5.91349 -3.72662 -0.266037)
(32.3013 -2.96393 -0.24444)
(45.9691 -1.6853 -0.169781)
(50.9184 -0.970653 -0.0829608)
(59.0827 -0.464006 -0.0269063)
(3.82492 0.110533 0.0407697)
(3.75434 0.372103 0.13305)
(3.54251 0.746305 0.246434)
(3.11286 1.34526 0.400099)
(1.8596 1.89801 0.432687)
(-0.108743 -0.697155 8.34887)
(-0.27897 0.418751 10.2498)
(0.277952 0.417141 10.2484)
(-0.71004 -0.710766 8.36573)
(0.00709259 0.0483584 8.29467)
(11.6158 -15.9007 -0.267824)
(35.8966 -8.29751 -0.298106)
(48.2835 -4.91527 -0.203233)
(52.4696 -2.83217 -0.0961739)
(60.2443 -1.34764 -0.0291802)
(4.12887 0.151914 0.0421962)
(4.14661 0.506513 0.140551)
(4.13177 1.00113 0.268873)
(4.0833 1.76859 0.459978)
(3.15442 2.7043 0.548699)
(1.97495 4.82046 0.77247)
(-0.0497663 -0.0512025 8.28537)
(-0.0486645 -0.646182 8.32053)
(0.042925 -0.728284 8.33952)
(0.0486723 0.00743155 8.29091)
(22.787 -19.828 -0.00503915)
(41.8553 -11.3765 -0.360204)
(52.0124 -6.68452 -0.238091)
(55.0119 -3.94065 -0.107657)
(62.1792 -1.89979 -0.0306053)
(4.48447 0.15998 0.0420087)
(4.59473 0.525628 0.141558)
(4.78514 1.01586 0.275576)
(5.05068 1.74142 0.485081)
(5.39918 2.86473 0.834773)
(4.3982 4.39137 0.911845)
(21.1688 -29.2481 1.34292)
(37.0925 -17.2879 -0.485194)
(47.086 -11.0962 -0.60227)
(55.8463 -7.0654 -0.266756)
(57.8935 -4.3017 -0.105829)
(64.461 -2.12215 -0.0287979)
(4.82019 0.141895 0.0393036)
(5.00373 0.458233 0.1319)
(5.35443 0.866028 0.255694)
(5.91108 1.44756 0.44999)
(6.72659 2.3462 0.783681)
(7.69831 3.5469 1.32185)
(8.63508 6.86907 0.986156)
(9.07329 5.8438 0.828386)
(37.4782 -16.8943 2.58971)
(36.9222 -19.7286 2.32124)
(42.7446 -14.2713 -0.177726)
(51.4574 -9.94045 -0.486823)
(59.2983 -6.62418 -0.19735)
(60.6058 -4.16218 -0.065938)
(66.7285 -2.09622 -0.0142454)
(5.08905 0.110731 0.0342891)
(5.31375 0.350564 0.112274)
(5.74687 0.642036 0.208029)
(6.43404 1.02029 0.335856)
(7.44389 1.52601 0.503939)
(8.94713 2.23776 0.671673)
(11.0141 2.91762 0.717958)
(12.6831 4.14811 0.661549)
(19.5661 8.08733 0.600171)
(25.2877 1.92058 0.547805)
(32.2001 -1.27535 0.734779)
(36.5597 -7.22006 1.22903)
(37.0395 -14.9023 1.77032)
(37.4617 -15.4133 2.07424)
(41.0137 -13.9349 1.50979)
(46.7184 -10.7717 0.386321)
(54.7125 -7.88446 -0.00505148)
(61.94 -5.54127 -0.0115721)
(62.8498 -3.6124 0.00976463)
(68.724 -1.85474 0.0138786)
(5.28474 0.0782465 0.0290425)
(5.53154 0.243881 0.0926928)
(6.00846 0.436569 0.165188)
(6.76126 0.671686 0.251007)
(7.85757 0.964409 0.348572)
(9.4238 1.3156 0.438622)
(11.6539 1.68942 0.483419)
(14.7247 1.5448 0.49516)
(18.6353 1.08166 0.504895)
(23.1598 -0.637646 0.559591)
(27.6013 -3.47131 0.721947)
(31.4496 -6.78291 0.976377)
(34.7766 -9.20235 1.15828)
(38.1309 -10.2503 1.14269)
(42.6993 -9.61439 0.87754)
(49.1714 -7.85873 0.428842)
(57.0049 -6.00651 0.16712)
(63.9355 -4.35235 0.0850679)
(64.6278 -2.90419 0.0575413)
(70.3751 -1.5121 0.0335632)
(5.41383 0.0497532 0.0245337)
(5.67086 0.153201 0.0766309)
(6.16716 0.268832 0.132483)
(6.94437 0.401211 0.192826)
(8.05856 0.551182 0.254973)
(9.59563 0.704382 0.310643)
(11.6623 0.803294 0.349456)
(14.3391 0.670674 0.373704)
(17.6272 0.180304 0.398108)
(21.3758 -0.894709 0.442071)
(25.3123 -2.53009 0.525292)
(29.2645 -4.33446 0.63197)
(33.3222 -5.76431 0.702012)
(37.8922 -6.48775 0.681164)
(43.5451 -6.21906 0.553999)
(50.5872 -5.30085 0.360189)
(58.5006 -4.19028 0.207627)
(65.3398 -3.10899 0.124685)
(65.9343 -2.11223 0.079835)
(71.6314 -1.11115 0.0432255)
(5.48962 0.0269153 0.0213974)
(5.75072 0.0821416 0.065794)
(6.25391 0.14199 0.11153)
(7.03647 0.206724 0.158206)
(8.14392 0.272995 0.203806)
(9.63745 0.326635 0.244588)
(11.5834 0.330382 0.27715)
(14.0286 0.206661 0.302774)
(16.9734 -0.120815 0.327825)
(20.3529 -0.724563 0.36041)
(24.0714 -1.57125 0.405162)
(28.1031 -2.48303 0.452665)
(32.5758 -3.21654 0.478401)
(37.7739 -3.58304 0.459935)
(44.0227 -3.48826 0.392165)
(51.4338 -3.05328 0.293777)
(59.4721 -2.47063 0.201535)
(66.3074 -1.86313 0.134048)
(66.8609 -1.27926 0.0872165)
(72.5252 -0.675348 0.0464781)
(5.52377 0.00842931 0.0197891)
(5.78586 0.0256546 0.0603863)
(6.29034 0.0440307 0.101386)
(7.07188 0.0633562 0.142074)
(8.17031 0.0819665 0.180919)
(9.6356 0.0943116 0.215751)
(11.5184 0.0876194 0.245159)
(13.8537 0.0394964 0.269985)
(16.6461 -0.0735835 0.293504)
(19.8668 -0.269013 0.319688)
(23.4872 -0.533838 0.349213)
(27.5377 -0.815084 0.375609)
(32.1591 -1.04179 0.386016)
(37.5899 -1.15711 0.369425)
(44.07 -1.13571 0.323622)
(51.6339 -1.00622 0.258391)
(59.7323 -0.822617 0.191161)
(66.5747 -0.624324 0.133767)
(67.1252 -0.429377 0.0886579)
(72.8142 -0.225935 0.0473133)
(5.56376 -0.00764654 0.0318336)
(5.82618 -0.0230122 0.0971602)
(6.3305 -0.039103 0.163003)
(7.11077 -0.0555572 0.227924)
(8.2061 -0.0709308 0.289553)
(9.66655 -0.0804881 0.344775)
(11.5442 -0.0723079 0.391355)
(13.8764 -0.0238259 0.430757)
(16.6689 0.0898853 0.467824)
(19.8917 0.288384 0.507664)
(23.5106 0.560564 0.551335)
(27.5494 0.852045 0.589254)
(32.1461 1.08595 0.602876)
(37.5451 1.20014 0.575281)
(43.9976 1.16798 0.503563)
(51.5486 1.02222 0.40268)
(59.6498 0.826698 0.298197)
(66.5034 0.623729 0.208777)
(67.066 0.428172 0.138893)
(72.7665 0.225299 0.0748448)
(5.5331 -0.0245773 0.0342637)
(5.79525 -0.0742289 0.1053)
(6.29936 -0.126904 0.178162)
(7.08167 -0.182186 0.251821)
(8.18614 -0.237286 0.323154)
(9.67337 -0.281048 0.386859)
(11.6121 -0.280348 0.438189)
(14.0534 -0.157063 0.479089)
(17.0012 0.170477 0.518665)
(20.3896 0.782619 0.568416)
(24.1141 1.65527 0.635085)
(28.1347 2.60646 0.704691)
(32.572 3.36889 0.740371)
(37.7202 3.73245 0.709307)
(43.9261 3.59772 0.604888)
(51.3225 3.09948 0.454198)
(59.3749 2.47572 0.312197)
(66.2326 1.85702 0.208129)
(66.8036 1.27412 0.136144)
(72.4822 0.67281 0.0733212)
(5.4642 -0.0459982 0.0390369)
(5.72397 -0.140073 0.121511)
(6.22397 -0.242794 0.209187)
(7.00389 -0.356344 0.302624)
(8.11544 -0.481408 0.39767)
(9.64121 -0.61141 0.4825)
(11.6929 -0.70406 0.543327)
(14.3622 -0.577504 0.582743)
(17.6595 -0.0968493 0.622145)
(21.4365 0.988206 0.689695)
(25.4018 2.68169 0.815224)
(29.3443 4.5902 0.976994)
(33.3312 6.09925 1.07917)
(37.7939 6.8207 1.04117)
(43.3557 6.45335 0.847051)
(50.384 5.35891 0.548739)
(58.354 4.16694 0.315029)
(65.2487 3.08191 0.191357)
(65.8729 2.09621 0.124074)
(71.5908 1.10412 0.0676587)
(5.34526 -0.0734287 0.0458021)
(5.59827 -0.226372 0.14547)
(6.08549 -0.399628 0.257432)
(6.84985 -0.601751 0.387786)
(7.94723 -0.841989 0.534275)
(9.4884 -1.13653 0.66705)
(11.684 -1.50929 0.74199)
(14.7335 -1.39553 0.76444)
(18.6623 -0.965427 0.781344)
(23.2672 0.753307 0.861557)
(27.8046 3.69449 1.11668)
(31.6624 7.25836 1.53228)
(34.8346 9.87249 1.81708)
(37.9389 10.9405 1.77735)
(42.287 10.0953 1.36653)
(48.7653 7.84888 0.627787)
(56.7928 5.88795 0.22404)
(63.8449 4.28123 0.122123)
(64.5746 2.86795 0.0874024)
(70.3451 1.49688 0.0519169)
(5.16194 -0.105757 0.0537235)
(5.39896 -0.331709 0.174941)
(5.85615 -0.598773 0.321696)
(6.57892 -0.924719 0.5163)
(7.60847 -1.3107 0.779411)
(9.04196 -1.76942 1.03572)
(11.0374 -2.57813 1.1468)
(13.7705 -5.06472 0.944738)
(18.1789 -4.81939 0.897286)
(23.9509 -4.14312 0.90366)
(29.7947 -0.71255 1.18356)
(34.044 3.89905 1.90121)
(35.4512 8.31312 2.67456)
(36.9917 16.5065 3.72009)
(40.0505 14.6966 2.96508)
(45.8597 10.3806 0.54796)
(54.4639 7.52732 -0.112033)
(61.9055 5.39665 -0.0429154)
(62.8279 3.54942 0.0077446)
(68.717 1.83013 0.0188827)
(4.90468 -0.138151 0.0608893)
(5.1088 -0.444195 0.202906)
(5.50869 -0.833891 0.39014)
(6.17261 -1.37644 0.690016)
(7.18728 -2.1887 1.33755)
(7.67955 -3.34025 2.05664)
(9.38435 -5.49229 1.51582)
(13.4785 -7.89297 1.58677)
(13.2104 -5.60456 1.16045)
(39.8208 12.4055 4.69436)
(36.1438 17.2965 5.08023)
(34.3515 19.0067 4.48468)
(41.0894 13.5989 -2.56048)
(51.4151 9.59843 -1.55578)
(59.4764 6.48852 -0.397873)
(60.6586 4.10215 -0.119649)
(66.7595 2.07396 -0.0303092)
(4.5751 -0.158481 0.0651301)
(4.70833 -0.521232 0.218079)
(4.95244 -1.0091 0.421891)
(5.32644 -1.73437 0.747365)
(5.794 -2.85089 1.40928)
(6.43637 -5.78777 1.81479)
(5.61844 -5.46452 1.77153)
(30.8584 22.6551 3.53921)
(35.9958 17.1816 -2.69798)
(47.2142 11.1195 -1.5132)
(56.0722 7.04304 -0.47853)
(57.9741 4.28226 -0.180383)
(64.5113 2.11502 -0.0502552)
(4.21896 -0.152511 0.065623)
(4.25668 -0.510859 0.217372)
(4.28698 -1.01652 0.413201)
(4.32741 -1.81428 0.7081)
(4.64012 -3.94932 1.04546)
(5.03282 -5.15323 1.7263)
(-0.0283352 -0.0190791 13.9042)
(0.0270265 0.0322308 13.8777)
(15.6091 24.3419 1.51843)
(27.1559 16.2275 -0.701251)
(42.0993 11.5057 -0.743526)
(52.18 6.72773 -0.410756)
(55.0769 3.95142 -0.183159)
(62.2283 1.90182 -0.0514539)
(3.91045 -0.111941 0.0637182)
(3.85384 -0.379435 0.20696)
(3.67041 -0.768633 0.380918)
(3.28991 -1.40778 0.616884)
(3.03067 -2.55418 0.884207)
(1.65598 -3.74288 1.29698)
(0.0949792 0.0936723 14.058)
(0.398716 0.168263 9.11672)
(-0.393299 0.166648 9.11872)
(-1.56926 0.105019 14.1675)
(-0.107464 -0.060233 13.935)
(18.885 19.8013 -0.632896)
(36.0635 8.39303 -0.532605)
(48.3882 4.9624 -0.33656)
(52.5181 2.85031 -0.159337)
(60.2857 1.35127 -0.0484829)
(3.72921 -0.040986 0.0617467)
(3.61146 -0.139066 0.196966)
(3.28507 -0.280923 0.350358)
(2.62443 -0.517586 0.526029)
(1.83879 -1.28108 0.649665)
(-0.0162665 -0.0270143 13.9049)
(0.167296 0.395347 9.11237)
(-0.222548 -0.221786 7.90151)
(0.224708 -0.223047 7.90297)
(-0.167084 0.396027 9.118)
(-1.43381 0.0106277 14.087)
(7.42359 10.6166 -0.704208)
(32.3958 3.00486 -0.38626)
(46.032 1.70597 -0.268309)
(50.9557 0.978892 -0.134746)
(59.1183 0.465482 -0.0446297)
(3.72921 0.0409908 0.0617472)
(3.61146 0.139083 0.196967)
(3.28507 0.280959 0.350369)
(2.62445 0.517644 0.526044)
(1.41261 0.458644 0.594571)
(0.0329522 0.0198342 13.8703)
(0.170277 -0.394611 9.11917)
(-0.220132 0.225997 7.90388)
(0.22468 0.224835 7.90391)
(-0.167485 -0.395221 9.1187)
(-1.64353 0.0320997 14.1567)
(5.93558 -3.77598 -0.582609)
(32.396 -3.00504 -0.386289)
(46.0321 -1.70627 -0.2681)
(50.9557 -0.979276 -0.134473)
(59.1184 -0.465844 -0.0445141)
(3.91046 0.111947 0.0637194)
(3.85386 0.379455 0.206965)
(3.67044 0.768665 0.380938)
(3.29007 1.40786 0.616905)
(1.97288 2.02747 0.750935)
(0.108668 -1.56955 14.1663)
(0.396183 -0.165148 9.11937)
(-0.395534 -0.167518 9.11753)
(-1.495 -1.4972 14.202)
(-0.112012 -0.0221965 13.9384)
(11.5598 -15.915 -0.808479)
(36.0635 -8.39313 -0.532625)
(48.3885 -4.96282 -0.336378)
(52.5183 -2.85063 -0.158904)
(60.286 -1.35148 -0.0481706)
(4.21899 0.152519 0.0656259)
(4.25672 0.510884 0.217381)
(4.28705 1.01657 0.413218)
(4.32749 1.81434 0.708133)
(3.38375 2.80791 0.978829)
(2.14104 5.04854 1.57758)
(-0.0574568 -0.106207 13.9462)
(0.0135398 -1.43486 14.0918)
(0.0314168 -1.64552 14.1535)
(-0.0227468 -0.112529 13.9346)
(22.2063 -19.6501 -0.44536)
(42.0993 -11.5058 -0.743505)
(52.1797 -6.72765 -0.410622)
(55.0769 -3.95142 -0.182843)
(62.2286 -1.90201 -0.0511841)
(4.57515 0.15849 0.0651346)
(4.70839 0.521259 0.218091)
(4.9525 1.00914 0.421912)
(5.3265 1.7344 0.747397)
(5.79397 2.85091 1.40931)
(4.60029 4.45695 1.79716)
(19.9987 -28.2243 2.62528)
(35.9956 -17.1817 -2.69819)
(47.214 -11.1196 -1.51327)
(56.0722 -7.04336 -0.47844)
(57.9742 -4.28253 -0.180264)
(64.5118 -2.11509 -0.0501638)
(4.90475 0.138161 0.0608948)
(5.10887 0.444226 0.202921)
(5.50876 0.833947 0.390166)
(6.17266 1.37652 0.690058)
(7.18733 2.18883 1.33763)
(7.67997 3.34055 2.05672)
(8.32057 6.74745 1.70895)
(8.99949 5.77079 1.60773)
(37.0234 -17.0584 5.55562)
(34.3514 -19.0067 4.48421)
(41.0887 -13.5986 -2.5606)
(51.4149 -9.59836 -1.55582)
(59.4763 -6.48854 -0.397916)
(60.6587 -4.10213 -0.119613)
(66.76 -2.0739 -0.0302577)
(5.16204 0.105767 0.0537283)
(5.39906 0.331739 0.174953)
(5.85626 0.598831 0.321716)
(6.57906 0.92482 0.516329)
(7.60867 1.31086 0.779447)
(9.04221 1.76966 1.03578)
(11.0376 2.57832 1.14682)
(12.6313 3.82864 1.16576)
(19.4825 7.93919 1.06044)
(25.3633 1.88637 0.930992)
(32.5548 -1.33649 1.26615)
(37.2121 -7.47317 2.32608)
(37.2949 -15.7336 3.62111)
(36.9912 -16.5062 3.7197)
(40.0501 -14.6967 2.96475)
(45.8594 -10.3805 0.547855)
(54.4636 -7.52732 -0.112054)
(61.9054 -5.39658 -0.042878)
(62.8279 -3.54936 0.00777213)
(68.7174 -1.83004 0.0189184)
(5.34537 0.0734353 0.0458063)
(5.59839 0.226393 0.145481)
(6.08563 0.399665 0.257448)
(6.85002 0.601805 0.387807)
(7.94743 0.84205 0.534302)
(9.48863 1.13659 0.667082)
(11.6842 1.50931 0.742008)
(14.7336 1.3955 0.764458)
(18.6626 0.965451 0.781304)
(23.2675 -0.753321 0.861448)
(27.8045 -3.69463 1.11649)
(31.6622 -7.25865 1.53215)
(34.8342 -9.87244 1.81702)
(37.9385 -10.9406 1.7774)
(42.2867 -10.0952 1.36655)
(48.765 -7.84892 0.627762)
(56.7926 -5.88802 0.224029)
(63.8449 -4.28122 0.12212)
(64.5748 -2.86791 0.0874428)
(70.3455 -1.49681 0.0519515)
(5.46432 0.0460024 0.0390404)
(5.7241 0.140085 0.121519)
(6.22412 0.242815 0.209198)
(7.00406 0.356372 0.302639)
(8.11564 0.481437 0.397688)
(9.64143 0.611435 0.482517)
(11.6932 0.704074 0.543333)
(14.3624 0.577514 0.582728)
(17.6597 0.0968811 0.622082)
(21.4367 -0.988278 0.689596)
(25.4018 -2.68179 0.815125)
(29.3441 -4.59034 0.97687)
(33.3309 -6.09926 1.07912)
(37.7935 -6.82078 1.04129)
(43.3553 -6.45342 0.847199)
(50.3837 -5.35883 0.548604)
(58.3539 -4.16683 0.314859)
(65.2488 -3.08188 0.191328)
(65.8731 -2.09616 0.124092)
(71.5912 -1.10406 0.0676803)
(5.53323 0.0245795 0.0342667)
(5.79539 0.0742358 0.105307)
(6.29952 0.126916 0.178171)
(7.08185 0.1822 0.251832)
(8.18634 0.2373 0.323166)
(9.67359 0.281059 0.386868)
(11.6123 0.280354 0.438188)
(14.0536 0.157068 0.47907)
(17.0014 -0.170471 0.518616)
(20.3897 -0.782658 0.568342)
(24.1141 -1.65536 0.635005)
(28.1345 -2.60654 0.704614)
(32.5717 -3.36894 0.740312)
(37.7198 -3.73246 0.709296)
(43.9257 -3.59769 0.604909)
(51.3222 -3.09959 0.454043)
(59.3747 -2.47586 0.312023)
(66.2327 -1.85705 0.208101)
(66.8039 -1.27411 0.136165)
(72.4825 -0.6728 0.0733452)
(5.56389 0.00764728 0.0318364)
(5.82632 0.0230143 0.097166)
(6.33066 0.0391064 0.16301)
(7.11095 0.0555614 0.227933)
(8.2063 0.070935 0.289561)
(9.66677 0.0804912 0.344779)
(11.5444 0.0723093 0.39135)
(13.8766 0.023826 0.430738)
(16.6691 -0.0898899 0.467788)
(19.8918 -0.288403 0.507612)
(23.5106 -0.560591 0.551272)
(27.5492 -0.852075 0.589193)