FoamFile
{
    version     2.0;
    format      ascii;
    class       volScalarField;
    location    "0.0003";
    object      CO2;
}

dimensions      [0 0 0 0 0 0 0];
internalField   uniform 0.064;
boundaryField
{
    defaultFaces
    {
        type    zeroGradient;
    }
}
