/*--------------------------------*- C++ -*----------------------------------*\
  =========                 |
  \\      /  F ield         | OpenFOAM: The Open Source CFD Toolbox
   \\    /   O peration     | Website:  https://openfoam.org
    \\  /    A nd           | Version:  11
     \\/     M anipulation  |
\*---------------------------------------------------------------------------*/
FoamFile
{
    format      ascii;
    class       volScalarField;
    location    "0.0003";
    object      p;
}
// * * * * * * * * * * * * * * * * * * * * * * * * * * * * * * * * * * * * * //

dimensions      [1 -1 -2 0 0 0 0];

internalField   nonuniform List<scalar> 
21740
(
243264
240842
238288
235523
232457
229000
225064
220583
215534
209953
203949
197696
191428
185443
180097
175829
173177
172699
174134
175888
243284
240906
238397
235678
232657
229234
225309
220799
215669
209957
203798
197398
191030
185016
179713
175536
172988
172603
174106
175887
243325
241032
238614
235991
233065
229721
225831
221272
215972
209998
203510
196796
190220
184157
178964
174976
172628
172401
174012
175866
243385
241217
238935
236462
233693
230493
226694
222084
216521
210064
202986
195734
188851
182735
177792
174153
172135
172139
173897
175845
243460
241452
239350
237082
234547
231589
228007
224188
218751
212012
204296
196369
188796
180597
176128
173085
171559
171854
173776
175826
243546
241724
239838
237834
235623
233054
230135
225927
220616
185337
179688
174154
171995
171028
171639
173699
175827
243635
242009
240360
238673
236904
234956
232492
172476
171050
170635
171485
173651
175837
243716
242271
240849
239480
238197
236815
195231
195232
170418
170299
170482
171437
173629
175855
243779
242474
241232
240118
239231
238486
195228
195426
195426
195244
195224
170073
170487
171436
173630
175872
243813
242585
241445
240487
239920
195231
195426
195486
195486
195426
195234
170293
170507
171446
173637
175879
243813
242585
241445
240487
240076
195231
195425
195486
195486
195426
195244
170353
170507
171446
173637
175879
243779
242474
241232
240118
239640
195242
195426
195426
195268
195228
170197
170486
171436
173630
175872
243716
242271
240849
239480
238767
237717
195223
195233
195244
195227
170093
170482
171437
173629
175855
243635
242009
240360
238673
236904
235928
171351
171050
170635
171485
173651
175837
243546
241724
239838
237834
235624
233055
231150
227572
177115
174154
171995
171028
171639
173699
175826
243460
241452
239350
237082
234547
231589
228007
225002
219069
212143
203689
195081
187405
180597
176128
173085
171559
171854
173776
175826
243385
241217
238935
236462
233693
230493
226694
222084
216521
210064
202986
195734
188851
182735
177792
174153
172134
172139
173897
175845
243325
241032
238614
235991
233065
229721
225831
221272
215972
209997
203510
196796
190220
184157
178964
174976
172628
172401
174012
175866
243284
240906
238397
235678
232657
229234
225309
220799
215669
209957
203798
197398
191030
185016
179713
175536
172988
172603
174106
175887
243264
240842
238288
235523
232457
229000
225064
220583
215534
209953
203949
197696
191428
185443
180097
175829
173177
172699
174134
175888
243263
240841
238287
235522
232458
229002
225067
220586
215535
209951
203944
197687
191419
185435
180092
175831
173185
172709
174142
175891
243284
240905
238397
235680
232661
229241
225319
220808
215676
209959
203795
197390
191020
185007
179710
175541
173001
172617
174116
175891
243325
241032
238616
235996
233076
229739
225855
221296
215992
210009
203511
196790
190208
184145
178962
174989
172653
172424
174026
175871
243385
241218
238939
236471
233713
230530
226744
222137
216565
210090
202996
195732
188835
182714
177790
174182
172184
172178
173919
175852
243461
241454
239355
237095
234574
231647
228093
224255
218811
212045
204302
196355
188773
180544
176115
173134
171642
171909
173803
175835
243547
241726
239842
237843
235642
233100
230193
226007
220706
185242
179571
174106
172097
171188
171736
173745
175843
243636
242010
240363
238680
236918
234978
232535
172396
171248
170847
171608
173713
175858
243717
242273
240852
239485
238203
236825
196404
196405
170489
170431
170701
171571
173703
175879
243779
242475
241234
240121
239233
238492
196398
197034
197034
196415
196397
170279
170710
171578
173709
175897
243813
242586
241446
240488
239921
196404
197034
197120
197120
197034
196406
170510
170725
171586
173715
175904
243813
242586
241446
240488
240077
196405
197033
197120
197120
197034
196418
170569
170725
171586
173715
175904
243779
242475
241234
240121
239642
196414
197034
197034
196442
196399
170412
170710
171577
173709
175897
243717
242273
240852
239485
238770
237724
196394
196405
196417
196398
170288
170701
171571
173703
175879
243636
242010
240363
238680
236918
235944
171383
171248
170847
171608
173713
175858
243547
241726
239842
237843
235642
233100
231204
227645
176989
174106
172097
171188
171736
173745
175843
243461
241454
239355
237095
234574
231647
228093
225072
219160
212190
203699
195043
187375
180544
176115
173134
171642
171909
173803
175835
243385
241218
238939
236471
233713
230530
226744
222137
216565
210090
202996
195732
188835
182714
177790
174182
172184
172178
173919
175852
243325
241032
238616
235996
233076
229739
225855
221296
215992
210009
203511
196790
190208
184145
178962
174989
172653
172423
174026
175871
243284
240905
238397
235680
232661
229241
225318
220808
215676
209959
203795
197390
191020
185007
179710
175541
173001
172617
174116
175891
243263
240841
238287
235522
232458
229002
225067
220586
215535
209951
203944
197687
191419
185434
180092
175831
173185
172708
174142
175891
243262
240839
238285
235520
232458
229005
225072
220591
215536
209947
203934
197674
191404
185422
180087
175835
173198
172725
174155
175896
243283
240904
238396
235681
232667
229253
225335
220825
215688
209963
203791
197379
191005
184994
179707
175552
173024
172641
174132
175897
243325
241032
238618
236005
233095
229773
225901
221345
216033
210033
203520
196787
190194
184130
178959
175011
172696
172463
174050
175880
243385
241220
238946
236489
233752
230605
226847
222248
216657
210146
203023
195741
188812
182683
177782
174227
172276
172249
173957
175866
243461
241457
239364
237118
234631
231783
228294
224415
218966
212142
204353
196387
188747
180459
176060
173188
171809
172009
173851
175853
243548
241729
239850
237860
235672
233179
230345
226193
220906
185087
179368
173905
172158
171516
171889
173818
175874
243636
242013
240369
238692
236940
235025
232644
172280
171623
171254
171811
173819
175897
243717
242274
240856
239492
238216
236846
199190
199191
170680
170833
171133
171817
173838
175924
243779
242476
241236
240127
239242
238507
199178
200315
200315
199215
199176
170778
171162
171847
173855
175944
243813
242586
241448
240493
239929
199189
200314
200433
200434
200315
199198
171040
171160
171850
173859
175950
243813
242586
241448
240493
240084
199189
200313
200433
200433
200314
199221
171086
171160
171850
173859
175950
243779
242476
241236
240127
239651
199213
200315
200315
199275
199185
170948
171161
171847
173855
175944
243717
242274
240856
239492
238781
237738
199177
199198
199220
199183
170739
171132
171817
173838
175924
243636
242013
240369
238692
236940
235976
171404
171623
171254
171810
173818
175897
243548
241729
239850
237860
235672
233179
231343
227823
176677
173905
172158
171516
171889
173818
175874
243461
241457
239364
237118
234631
231782
228294
225264
219354
212308
203748
195058
187320
180459
176060
173187
171809
172009
173851
175853
243385
241220
238946
236488
233752
230605
226847
222247
216657
210146
203023
195741
188812
182683
177782
174227
172276
172249
173957
175866
243325
241032
238618
236005
233095
229773
225901
221345
216033
210032
203520
196787
190194
184130
178959
175011
172696
172463
174050
175880
243283
240904
238396
235681
232667
229253
225335
220825
215688
209963
203791
197379
191005
184994
179707
175552
173024
172641
174132
175897
243262
240839
238285
235520
232458
229005
225072
220590
215536
209947
203934
197674
191404
185422
180087
175835
173198
172725
174154
175896
243261
240835
238279
235515
232455
229005
225074
220592
215532
209937
203918
197653
191382
185404
180079
175841
173216
172747
174172
175904
243282
240901
238393
235680
232672
229266
225353
220843
215700
209964
203781
197362
190984
184976
179701
175566
173054
172673
174155
175906
243324
241031
238620
236013
233117
229816
225960
221408
216086
210061
203527
196779
190171
184106
178951
175034
172752
172516
174082
175892
243385
241221
238952
236508
233802
230715
227000
222408
216791
210218
203055
195754
188769
182634
177764
174281
172414
172355
174011
175887
243462
241460
239373
237145
234707
232058
228685
224718
219259
212285
204425
196455
188711
180303
175763
173070
172061
172150
173915
175879
243548
241731
239857
237875
235638
233196
230714
226485
221311
184741
178891
172896
172061
172330
172132
173927
175930
243637
242014
240374
238701
236937
235045
232792
171429
172644
172128
172098
173978
175964
243717
242274
240858
239496
238220
236831
203490
203490
170817
171696
171833
172178
174043
175994
243779
242475
241237
240131
239249
238514
203473
204814
204815
203522
203482
171763
171850
172242
174069
176013
243812
242585
241448
240497
239938
203490
204814
204749
204750
204815
203512
171977
171799
172226
174062
176015
243812
242585
241448
240497
240092
203488
204813
204749
204749
204814
203544
171953
171799
172226
174062
176015
243779
242475
241237
240131
239660
203521
204815
204814
203593
203488
171991
171849
172242
174069
176013
243717
242274
240858
239496
238784
237718
203484
203514
203544
203489
171666
171833
172177
174043
175994
243637
242014
240374
238701
236937
235982
171423
172643
172128
172098
173978
175964
243548
241731
239857
237875
235638
233196
231661
228102
175866
172896
172060
172329
172132
173927
175930
243462
241460
239373
237145
234707
232058
228684
225675
219793
212488
203818
195128
187247
180303
175763
173070
172060
172150
173915
175879
243385
241221
238952
236508
233802
230715
227000
222408
216791
210217
203055
195754
188768
182634
177764
174281
172414
172355
174011
175886
243324
241031
238620
236013
233117
229816
225960
221408
216086
210061
203527
196779
190171
184106
178951
175034
172752
172516
174082
175892
243282
240901
238393
235680
232672
229266
225353
220843
215700
209964
203781
197362
190983
184976
179701
175566
173054
172673
174155
175906
243261
240835
238279
235515
232455
229005
225074
220592
215532
209937
203918
197653
191382
185404
180078
175841
173216
172747
174172
175904
243258
240828
238269
235504
232445
228997
225067
220584
215519
209917
203892
197623
191352
185380
180068
175847
173237
172772
174192
175912
243280
240895
238386
235674
232670
229271
225364
220854
215703
209956
203762
197335
190954
184952
179694
175582
173090
172711
174181
175917
243323
241028
238617
236016
233133
229853
226015
221467
216135
210081
203524
196760
190138
184075
178942
175068
172817
172576
174120
175906
243385
241220
238955
236524
233847
230818
227161
222578
216931
210283
203075
195747
188696
182563
177747
174374
172565
172466
174072
175909
243461
241460
239379
237170
234782
232306
229153
225149
219682
212431
204490
196517
188615
179907
175448
173161
172326
172302
173992
175907
243548
241731
239860
237886
235644
233322
230772
226791
221957
183212
177703
172550
172709
172987
172357
174047
175980
243636
242013
240373
238702
236890
234993
232665
170449
174015
173174
172402
174151
176036
243716
242271
240854
239491
238202
236694
207879
207886
169827
173141
172674
172589
174275
176074
243777
242471
241231
240127
239241
238439
207907
208459
208459
207864
207884
173641
172659
172694
174313
176093
243811
242580
241441
240494
239941
207879
208458
208349
208350
208458
207857
173308
172532
172649
174290
176089
243811
242580
241441
240494
240096
207879
208456
208348
208348
208458
207865
173087
172532
172649
174290
176089
243777
242471
241231
240127
239661
207861
208456
208455
207828
207864
173885
172658
172694
174313
176093
243716
242271
240854
239491
238768
237582
207886
207858
207862
207866
173428
172674
172588
174275
176074
243636
242013
240373
238702
236890
235886
170297
174014
173174
172402
174151
176036
243548
241731
239860
237886
235644
233322
231522
228349
173671
172550
172709
172987
172357
174047
175980
243461
241460
239379
237170
234782
232306
229153
226503
220882
212666
203881
195227
186876
179907
175448
173161
172326
172302
173992
175907
243385
241220
238955
236524
233847
230818
227161
222578
216931
210283
203075
195747
188696
182563
177747
174374
172565
172466
174072
175909
243323
241028
238617
236016
233133
229853
226015
221467
216135
210081
203524
196760
190138
184075
178942
175068
172817
172575
174120
175906
243280
240895
238386
235674
232670
229271
225364
220854
215703
209956
203762
197335
190954
184952
179694
175582
173089
172711
174181
175917
243258
240828
238269
235504
232445
228997
225067
220584
215519
209917
203892
197623
191352
185380
180068
175847
173236
172772
174192
175912
243255
240817
238253
235485
232424
228977
225047
220562
215491
209883
203853
197583
191314
185352
180055
175854
173258
172799
174213
175921
243277
240886
238372
235659
232657
229262
225358
220847
215689
209933
203730
197298
190918
184926
179688
175601
173125
172749
174209
175928
243320
241020
238607
236009
233135
229869
226045
221499
216157
210082
203505
196730
190102
184049
178945
175111
172883
172636
174160
175922
243382
241214
238950
236527
233871
230881
227264
222688
217017
210319
203072
195716
188638
182517
177763
174475
172694
172567
174133
175931
243460
241456
239378
237180
234828
232445
229414
225436
219925
212524
204510
196501
188504
179744
175416
173342
172542
172445
174072
175936
243546
241727
239856
237889
235665
233403
230902
227081
222350
182815
177103
172505
173210
173368
172561
174159
176020
243634
242007
240364
238693
236875
234972
232543
169924
174906
173749
172650
174293
176087
243714
242263
240841
239473
238182
236637
210177
210173
169920
174442
173251
172907
174456
176134
243774
242461
241215
240107
239227
238436
210233
210529
210529
210176
210220
174967
173280
173054
174514
176159
243807
242570
241424
240473
239932
210175
210527
210504
210504
210528
210174
174309
173143
173014
174494
176156
243807
242570
241424
240473
240088
210168
210524
210501
210502
210526
210162
174010
173142
173014
174494
176156
243774
242461
241215
240107
239650
210171
210521
210522
210093
210199
175074
173280
173054
174514
176159
243714
242263
240841
239473
238749
237556
210217
210170
210158
210196
174765
173251
172907
174456
176134
243634
242007
240364
238693
236875
235830
170009
174906
173749
172650
174293
176087
243546
241727
239856
237889
235665
233403
231480
228525
172957
172505
173210
173368
172561
174159
176020
243460
241456
239378
237180
234828
232445
229414
226946
221283
212789
203898
195172
186659
179744
175416
173342
172542
172445
174072
175936
243382
241214
238950
236527
233871
230881
227264
222688
217017
210318
203071
195715
188637
182517
177763
174475
172694
172567
174133
175931
243320
241020
238607
236009
233135
229869
226044
221498
216157
210081
203505
196730
190102
184049
178945
175110
172883
172636
174160
175922
243277
240886
238372
235659
232657
229262
225358
220847
215689
209932
203729
197298
190918
184926
179688
175601
173125
172749
174209
175928
243255
240817
238253
235484
232424
228977
225047
220561
215491
209883
203853
197583
191314
185352
180055
175853
173258
172799
174213
175921
243250
240802
238229
235454
232390
228940
225008
220519
215445
209832
203800
197531
191269
185319
180040
175859
173278
172825
174234
175930
243272
240871
238350
235632
232628
229233
225329
220817
215652
209889
203682
197250
190876
184898
179682
175619
173159
172785
174237
175940
243316
241008
238589
235988
233117
229858
226039
221493
216145
210056
203468
196687
190064
184028
178955
175155
172945
172694
174200
175937
243379
241204
238935
236514
233867
230897
227298
222723
217045
210319
203041
195664
188594
182501
177803
174572
172808
172659
174192
175953
243456
241446
239365
237172
234837
232503
229530
225567
219990
212535
204466
196448
188451
179676
175460
173526
172725
172579
174153
175965
243542
241717
239842
237876
235657
233414
230954
227272
222574
182833
176857
172539
173587
173638
172751
174269
176058
243630
241995
240347
238669
236841
234962
232563
169879
175459
174114
172900
174434
176135
243709
242250
240818
239439
238147
236620
211710
211811
170360
175173
173701
173203
174626
176192
243769
242446
241188
240066
239188
238432
212011
212281
212281
211953
212122
175656
173785
173381
174705
176223
243802
242553
241395
240429
239895
211707
212278
212232
212232
212279
211878
174977
173653
173353
174692
176222
243802
242553
241395
240429
240052
211804
212273
212228
212230
212277
211927
174675
173653
173353
174692
176222
243769
242446
241188
240066
239613
211943
212270
212272
211839
211905
175717
173785
173381
174705
176223
243709
242250
240818
239439
238713
237554
212111
211869
211921
211901
175495
173701
173203
174626
176192
243630
241995
240347
238669
236841
235808
170129
175459
174114
172900
174434
176135
243542
241717
239842
237876
235657
233414
231516
228664
172775
172539
173587
173638
172751
174269
176058
243456
241446
239365
237172
234837
232503
229529
227119
221366
212859
203853
194968
186665
179676
175460
173526
172725
172579
174153
175965
243379
241204
238935
236514
233867
230897
227298
222723
217045
210319
203041
195664
188594
182501
177803
174572
172808
172659
174192
175953
243316
241007
238589
235988
233117
229857
226039
221493
216145
210056
203468
196687
190064
184028
178955
175155
172945
172693
174199
175937
243272
240871
238350
235632
232628
229233
225329
220817
215652
209889
203681
197250
190876
184898
179682
175618
173159
172785
174237
175940
243250
240802
238229
235454
232390
228940
225008
220519
215444
209832
203800
197531
191269
185319
180040
175858
173278
172824
174234
175930
243243
240782
238196
235411
232340
228884
224949
220455
215378
209763
203731
197467
191214
185280
180022
175860
173296
172848
174254
175939
243265
240851
238319
235592
232582
229183
225278
220763
215593
209826
203617
197189
190824
184865
179672
175632
173189
172819
174263
175951
243309
240989
238560
235953
233078
229819
226002
221455
216103
210006
203412
196632
190018
184004
178963
175192
172999
172746
174237
175952
243373
241187
238910
236484
233838
230872
227280
222708
217024
210286
202992
195609
188552
182492
177841
174654
172902
172740
174246
175974
243450
241430
239342
237146
234815
232483
229523
225581
219968
212509
204405
196384
188412
179668
175533
173683
172874
172697
174228
175992
243537
241701
239819
237851
235634
233400
230940
227353
222691
213931
213934
213926
182922
176745
172653
173858
173840
172911
174368
176093
243624
241979
240322
238640
236808
234932
232580
213919
213915
213890
213892
213900
213919
213916
169972
175832
174379
173109
174560
176179
243703
242233
240792
239404
238109
236585
213918
213894
213871
213845
213799
213863
213870
213914
170797
175639
174036
173450
174775
176243
243763
242428
241160
240028
239144
238407
213912
213869
214069
213919
213920
214071
213851
213881
213921
176092
174162
173656
174872
176280
243795
242535
241365
240390
239852
213925
213885
213840
213915
213871
213873
213920
213731
213841
213927
175439
174044
173641
174867
176282
243795
242535
241365
240390
240010
213927
213884
213790
213911
213868
213870
213917
213676
213838
213927
175152
174044
173641
174867
176282
243763
242428
241160
240028
239570
213918
213890
213851
214057
213909
213912
214064
213790
213851
213923
176128
174162
173656
174872
176280
243703
242233
240792
239404
238672
237532
213907
213856
213838
213718
213667
213786
213862
213893
213914
175963
174036
173450
174775
176243
243624
241979
240322
238640
236807
235773
213901
213897
213864
213826
213827
213843
213888
213909
170351
175832
174379
173109
174560
176179
243537
241701
239819
237851
235634
233400
231530
228739
213903
213910
213914
213912
213905
172780
172653
173858
173840
172911
174368
176093
243450
241430
239342
237146
234814
232483
229522
227133
221338
212885
203795
194768
186711
179668
175533
173683
172874
172697
174227
175992
243373
241186
238910
236484
233838
230872
227280
222708
217024
210286
202992
195609
188552
182491
177841
174654
172902
172740
174246
175974
243309
240989
238560
235952
233078
229819
226002
221454
216103
210005
203412
196632
190018
184004
178963
175192
172998
172746
174237
175952
243265
240851
238319
235592
232582
229183
225277
220763
215593
209826
203617
197189
190824
184865
179672
175632
173189
172819
174263
175951
243243
240782
238196
235411
232339
228884
224949
220455
215378
209763
203731
197466
191214
185280
180021
175860
173296
172848
174254
175939
243234
240755
238154
235355
232272
228808
224867
220370
215290
209675
203646
197389
191150
185235
179999
175859
173311
172870
174273
175948
243256
240825
238277
235537
232517
229112
225203
220685
215513
209744
203535
197114
190763
184823
179656
175640
173214
172849
174287
175961
243301
240964
238520
235901
233018
229755
225936
221389
216037
209933
203338
196563
189962
183971
178961
175219
173043
172792
174271
175966
243364
241162
238872
236437
233785
230814
227226
222662
216968
210225
202933
195561
188505
182472
177863
174714
172977
172811
174295
175992
243442
241407
239307
237104
234767
232404
229433
225524
219953
212489
204386
196358
188370
179703
175621
173805
172992
172799
174295
176017
243529
241679
239787
237815
235607
233392
230949
227299
222551
182787
176850
172883
174079
174015
173052
174457
176124
243617
241958
240291
238608
236788
234915
232539
170269
176149
174636
173290
174672
176218
243696
242212
240762
239377
238085
236549
214878
215123
171086
176080
174320
173660
174907
176290
243756
242408
241133
240006
239124
238374
215032
215497
215499
215135
214810
176598
174450
173881
175014
176331
243788
242515
241339
240369
239829
214871
215491
215468
215472
215501
215149
175834
174333
173869
175011
176333
243788
242515
241339
240369
239985
215111
215487
215465
215469
215498
215145
175536
174333
173869
175011
176333
243756
242408
241133
240006
239548
215119
215488
215492
215199
215135
176567
174451
173881
175014
176330
243696
242212
240762
239377
238648
237483
214792
215133
215135
215129
176432
174320
173660
174907
176290
243617
241958
240291
238608
236788
235746
170688
176149
174636
173290
174672
176218
243529
241679
239787
237815
235607
233392
231510
228698
172859
172883
174079
174015
173051
174457
176124
243442
241407
239307
237104
234767
232403
229432
227060
221296
212822
203782
194882
186607
179703
175621
173805
172992
172799
174295
176017
243364
241162
238872
236437
233785
230814
227226
222662
216968
210225
202933
195561
188505
182472
177863
174714
172977
172811
174295
175992
243301
240964
238520
235901
233018
229755
225936
221389
216037
209933
203338
196563
189962
183971
178961
175219
173043
172792
174271
175966
243256
240825
238277
235537
232517
229112
225203
220685
215512
209743
203535
197114
190763
184823
179655
175640
173213
172849
174287
175961
243234
240755
238154
235355
232272
228808
224867
220370
215290
209675
203646
197389
191150
185234
179998
175859
173310
172870
174273
175948
243223
240722
238100
235283
232185
228710
224762
220261
215181
209569
203546
197301
191079
185185
179973
175856
173324
172890
174291
175956
243245
240793
238224
235466
232432
229017
225102
220581
215408
209640
203438
197027
190694
184778
179636
175645
173236
172877
174310
175971
243290
240931
238467
235832
232936
229664
225842
221294
215941
209837
203246
196482
189898
183934
178955
175242
173083
172835
174303
175979
243353
241130
238821
236370
233706
230726
227137
222577
216884
210137
202853
195497
188449
182448
177879
174764
173043
172875
174341
176010
243432
241376
239258
237041
234692
232296
229317
225440
219923
212455
204353
196316
188314
179731
175697
173904
173094
172891
174357
176040
243519
241649
239740
237759
235549
233335
230916
227180
222411
182607
176984
173084
174259
174172
173179
174540
176155
243606
241928
240247
238557
236739
234871
232445
170561
176405
174868
173455
174776
176256
243686
242184
240721
239331
238045
236489
216664
216683
171287
176427
174570
173852
175030
176334
243746
242380
241094
239965
239088
238313
216641
217051
217056
216694
216654
177052
174702
174089
175149
176379
243779
242488
241302
240330
239793
216654
217042
217035
217042
217060
216687
176177
174583
174083
175150
176383
243779
242488
241302
240330
239947
216667
217041
217033
217040
217059
216705
175857
174583
174083
175150
176383
243746
242380
241094
239965
239512
216674
217046
217051
216716
216678
176976
174702
174089
175149
176379
243686
242184
240721
239331
238608
237412
216633
216669
216694
216673
176824
174570
173852
175030
176334
243606
241928
240247
238557
236738
235699
170974
176405
174868
173455
174776
176256
243519
241649
239740
237758
235549
233335
231442
228591
172955
173084
174259
174172
173179
174539
176155
243432
241376
239258
237041
234692
232296
229317
226971
221277
212735
203747
194982
186465
179731
175697
173904
173094
172891
174357
176040
243353
241130
238821
236370
233706
230726
227137
222577
216883
210137
202853
195497
188449
182448
177879
174764
173043
172874
174341
176010
243290
240931
238467
235832
232936
229664
225841
221294
215941
209836
203246
196482
189898
183934
178955
175242
173083
172834
174303
175979
243245
240793
238224
235466
232432
229017
225102
220581
215407
209640
203438
197027
190693
184777
179636
175645
173235
172876
174310
175971
243223
240722
238100
235283
232185
228710
224762
220261
215181
209568
203546
197300
191079
185185
179973
175855
173323
172890
174291
175956
243209
240682
238035
235195
232079
228590
224632
220127
215049
209443
203432
197203
191002
185134
179947
175853
173337
172911
174309
175964
243232
240753
238159
235379
232326
228898
224974
220449
215278
209516
203325
196932
190621
184731
179618
175650
173257
172904
174332
175980
243276
240891
238402
235745
232831
229545
225716
221167
215815
209717
203138
196392
189831
183898
178951
175265
173122
172876
174335
175992
243340
241089
238755
236283
233600
230605
227009
222451
216763
210022
202751
195417
188393
182430
177898
174813
173106
172935
174384
176027
243418
241335
239192
236954
234586
232164
229177
225321
219828
212367
204268
196239
188253
179745
175762
173995
173190
172977
174417
176063
243505
241608
239675
237674
235448
233215
230795
227044
222301
182524
177011
173221
174408
174307
173294
174616
176183
243593
241888
240184
238475
236641
234769
232317
170737
176605
175047
173599
174871
176291
243672
242144
240660
239251
237962
236384
218209
218219
171472
176670
174774
174019
175141
176374
243732
242342
241035
239888
239008
238220
218192
218529
218538
218223
218217
177341
174918
174273
175272
176423
243765
242450
241244
240255
239714
218194
218518
218508
218519
218546
218230
176458
174804
174273
175278
176429
243765
242450
241244
240255
239870
218197
218517
218508
218519
218545
218236
176129
174804
174273
175278
176429
243732
242342
241035
239888
239433
218198
218527
218536
218224
218225
177265
174918
174273
175272
176423
243672
242144
240660
239251
238527
237313
218191
218208
218222
218219
177088
174773
174019
175141
176374
243593
241888
240184
238475
236641
235597
171163
176605
175047
173599
174871
176291
243505
241608
239675
237674
235448
233215
231315
228454
173018
173221
174408
174307
173294
174616
176183
243418
241335
239192
236954
234586
232164
229177
226851
221192
212638
203660
194916
186378
179744
175762
173995
173190
172977
174417
176063
243340
241089
238755
236283
233600
230605
227009
222451
216763
210022
202751
195417
188393
182430
177898
174812
173106
172935
174384
176027
243276
240891
238402
235744
232831
229545
225715
221167
215815
209716
203138
196392
189831
183898
178951
175265
173121
172875
174335
175992
243232
240752
238158
235379
232326
228898
224974
220448
215277
209516
203325
196932
190620
184731
179617
175650
173257
172904
174332
175980
243209
240682
238035
235195
232078
228590
224632
220127
215049
209443
203431
197202
191002
185133
179947
175853
173337
172911
174309
175964
243193
240635
237958
235091
231952
228446
224478
219970
214895
209299
203304
197097
190923
185083
179924
175854
173354
172934
174328
175972
243216
240705
238081
235274
232198
228752
224818
220290
215123
209373
203199
196829
190546
184687
179603
175660
173282
172934
174356
175990
243260
240842
238324
235639
232702
229399
225559
221008
215661
209574
203015
196296
189766
183867
178952
175291
173162
172918
174366
176005
243323
241039
238673
236173
233466
230452
226845
222287
216607
209881
202632
195329
188342
182421
177926
174866
173169
172995
174427
176044
243401
241284
239109
236843
234449
232000
229001
225161
219678
212232
204152
196151
188203
179769
175832
174088
173283
173059
174474
176085
243487
241556
239591
237562
235309
233055
230633
226879
222145
182500
177050
173351
174545
174426
173398
174688
176210
243575
241836
240100
238364
236507
234625
232159
170906
176774
175194
173726
174957
176323
243654
242092
240576
239143
237845
236249
219582
219596
171680
176873
174942
174163
175237
176410
243715
242290
240953
239782
238896
238100
219573
219843
219858
219607
219604
177557
175102
174429
175377
176462
243748
242399
241163
240151
239607
219561
219826
219814
219831
219870
219616
176672
174994
174436
175388
176469
243748
242399
241163
240151
239764
219564
219826
219814
219831
219870
219620
176343
174994
174436
175388
176469
243715
242290
240953
239782
239324
219571
219843
219857
219596
219615
177475
175102
174429
175377
176462
243654
242092
240576
239143
238412
237184
219571
219585
219602
219606
177298
174942
174163
175237
176410
243575
241836
240100
238364
236507
235458
171354
176773
175194
173726
174957
176323
243487
241556
239591
237562
235309
233055
231155
228290
173097
173351
174545
174426
173398
174688
176210
243401
241284
239109
236842
234449
232000
229001
226686
221037
212503
203545
194833
186335
179769
175832
174088
173283
173059
174474
176085
243323
241039
238673
236173
233466
230452
226845
222287
216607
209881
202632
195328
188342
182421
177926
174865
173169
172994
174427
176044
243260
240842
238323
235638
232702
229399
225559
221008
215661
209574