/*--------------------------------*- C++ -*----------------------------------*\
  =========                 |
  \\      /  F ield         | OpenFOAM: The Open Source CFD Toolbox
   \\    /   O peration     | Website:  https://openfoam.org
    \\  /    A nd           | Version:  11
     \\/     M anipulation  |
\*---------------------------------------------------------------------------*/
FoamFile
{
    format      ascii;
    class       surfaceScalarField;
    location    "0.0003";
    object      phi;
}
// * * * * * * * * * * * * * * * * * * * * * * * * * * * * * * * * * * * * * //

dimensions      [1 0 -1 0 0 0 0];

internalField   nonuniform List<scalar> 
62564
(
0.00219847
-1.37831e-05
2.54774e-06
0.00230555
-4.38052e-05
8.0878e-06
0.00249104
-7.62415e-05
1.31248e-05
0.0027602
-0.00011017
1.73621e-05
0.00311671
-0.000142963
2.06142e-05
0.00355853
-0.000168346
2.29954e-05
0.00407344
-0.000176464
2.50755e-05
0.0046363
-0.000155641
2.76408e-05
0.00520375
-9.06275e-05
3.1481e-05
0.00572019
2.69688e-05
3.60115e-05
0.00615229
0.000168886
4.09047e-05
0.00648193
0.000313023
4.50157e-05
0.00672329
0.000418539
4.69034e-05
0.00689967
0.000466943
4.50897e-05
0.00702204
0.000460183
3.8777e-05
0.00708412
0.000407864
2.91076e-05
0.00706858
0.000331654
1.88792e-05
0.00700268
0.000250896
1.09357e-05
0.00712629
0.000175036
6.58424e-06
0.000101918
4.39769e-06
0.0021681
-2.77722e-05
2.60369e-06
0.00227431
-8.86293e-05
8.30146e-06
0.00245979
-0.000155577
1.34027e-05
0.00273236
-0.000227792
1.74896e-05
0.00309961
-0.000301099
2.01817e-05
0.00356286
-0.000362347
2.15292e-05
0.00411107
-0.000390015
2.25471e-05
0.00472135
-0.000361655
2.47672e-05
0.00534626
-0.00024051
2.90948e-05
0.0059021
1.22705e-05
3.6028e-05
0.00635352
0.000314548
4.44365e-05
0.0066667
0.000636178
5.23608e-05
0.00687448
0.000861262
5.70827e-05
0.00701738
0.000956464
5.57013e-05
0.00711165
0.000938799
4.67241e-05
0.0071581
0.000824184
3.21766e-05
0.00713545
0.000665346
1.74878e-05
0.00705991
0.000507096
7.79032e-06
0.00716692
0.000362704
4.0505e-06
0.000211531
3.05077e-06
0.00210655
-4.18637e-05
2.7432e-06
0.00220993
-0.000134388
8.8359e-06
0.00239339
-0.00023914
1.42066e-05
0.00267024
-0.000357895
1.81649e-05
0.00305662
-0.000487284
1.97391e-05
0.0035628
-0.000607186
1.84162e-05
0.00417545
-0.000674663
1.63558e-05
0.00488913
-0.000675404
1.70176e-05
0.0056216
-0.000499416
2.25308e-05
0.00622725
-5.48913e-05
3.4035e-05
0.00667472
0.000458845
4.9391e-05
0.00687418
0.00106369
6.55175e-05
0.00693851
0.0014314
7.72213e-05
0.00695404
0.00155464
7.80738e-05
0.00694651
0.00150603
6.36511e-05
0.0069398
0.00128937
3.73554e-05
0.00690921
0.00100986
1.22205e-05
0.00684901
0.00075259
-6.08595e-07
0.00697601
0.000532033
-2.08893e-06
0.000309328
-1.84526e-07
0.00201333
-5.52303e-05
3.00956e-06
0.00210979
-0.000178862
9.90418e-06
0.00228493
-0.000324021
1.61308e-05
0.00255968
-0.000499109
2.06687e-05
0.00296523
-0.000707355
2.11631e-05
0.00353179
-0.000924282
1.44225e-05
0.00422147
-0.00104594
4.94849e-06
0.00510744
-0.000282751
2.04519e-06
-0.000293179
-0.000293776
-0.00029794
0.00608814
-0.000288369
9.50939e-06
-0.000210612
-0.000293476
-0.000212331
0.0067625
-8.6763e-05
2.83053e-05
-9.76764e-06
-8.78927e-05
-7.79895e-06
0.00726167
9.57987e-05
5.57145e-05
0.00017217
9.87222e-05
0.000178118
0.00723553
0.000386589
8.73834e-05
0.000446822
0.000399261
0.000471297
0.00708066
0.000560159
0.000113522
0.000507628
0.000584917
0.000533259
0.00691842
0.0022853
0.00012381
0.00674831
0.00220385
9.90069e-05
0.00667079
0.00181525
4.48501e-05
0.00664257
0.00135883
-3.20165e-06
0.00660714
0.000982079
-1.94968e-05
0.00675551
0.000682746
-1.4418e-05
0.000393105
-6.55682e-06
0.00188928
-6.60968e-05
3.4221e-06
0.00197145
-0.000216372
1.1652e-05
0.00212482
-0.000400484
1.99178e-05
0.00237739
-0.000638567
2.75631e-05
0.00278231
-0.000953413
3.08757e-05
0.0034335
-0.00134985
1.92225e-05
0.000991545
-0.00037763
-5.13746e-06
-0.000324559
-0.000386856
-0.000326108
0.00102699
0.00102483
0.00106189
0.00112282
-0.00036626
-3.22961e-06
0.00146443
-0.000417551
-1.95341e-06
-0.00127718
-0.00163825
0.0017244
-0.000111492
5.22686e-06
-0.00177492
0.00186682
6.79648e-05
1.235e-05
-0.00191752
0.00192184
0.000447313
2.22537e-05
-0.00180543
0.00173795
0.000692597
2.55451e-05
0.00679841
0.000707472
0.000225705
0.000751619
0.000739245
0.000800569
-0.00168408
-0.00177439
-0.00176975
-0.00181652
0.0063469
0.00311083
0.000176723
0.00622876
0.00235634
6.24895e-05
0.0062484
0.0016709
-3.04459e-05
0.00627237
0.00116282
-4.66609e-05
0.00646282
0.000793704
-3.1029e-05
0.00045315
-1.5625e-05
0.00173883
-7.15555e-05
4.0171e-06
0.00179553
-0.000237208
1.42359e-05
0.00190338
-0.000449061
2.65504e-05
0.0020891
-0.000743892
4.38537e-05
0.0024386
-0.00120381
6.9273e-05
0.000766176
-0.000423888
9.07436e-05
0.000759464
0.000788976
0.000779375
-0.000505314
-0.000432123
-0.0005127
0.000901183
-0.00048407
5.002e-06
-0.00100027
0.00142848
-0.000794663
2.79162e-06
0.000411034
0.00100117
-0.00097148
-2.52789e-06
-0.00145689
0.00231873
3.44224e-05
-0.000814763
-0.00173744
0.00168879
0.000786748
5.39257e-05
0.0056806
0.00106862
0.000298401
-0.00156122
-0.00161528
-0.0016777
-0.00167296
0.00099438
0.00113979
0.0010768
0.00553275
0.00292414
3.49374e-05
0.00569833
0.00189854
-0.000124777
0.00584792
0.00127234
-0.000128296
0.00611005
0.00085651
-7.5717e-05
0.00048393
-3.80268e-05
0.00157323
-6.81897e-05
4.38932e-06
0.00159219
-0.00022798
1.56532e-05
0.00162378
-0.000435963
2.96262e-05
0.00166172
-0.000725904
4.92484e-05
0.000447308
-0.000268103
7.75432e-05
0.000387527
0.000458039
0.000394505
-0.000313528
-0.000271489
-0.000315866
0.000497077
-0.00046212
1.08993e-05
0.000832
-0.000818419
6.42765e-06
-0.00159951
0.00111733
0.00156753
7.85469e-05
0.00458992
0.000776369
-9.28269e-05
-0.00108417
-0.000925603
-0.00120913
-0.000979669
0.000668716
0.000832065
0.000718212
0.00501603
0.0019012
-0.000220237
0.00534182
0.00122098
-0.000181886
0.00570195
0.000826941
-0.000108511
0.000463639
-5.31827e-05
0.00141363
-5.43814e-05
4.5401e-06
0.00139137
-0.000183379
1.59672e-05
0.00134561
-0.000355932
2.98904e-05
0.000317944
-0.000607353
4.83747e-05
0.000309964
0.000324427
0.000315283
0.000314412
-0.000258609
7.99391e-06
0.000406137
0.000455581
-0.00053951
1.29507e-05
-0.000315253
-7.59182e-07
-1.66986e-06
-5.09088e-05
-3.44613e-08
8.71017e-07
-3.7196e-06
-7.99529e-05
-0.00080289
0.00083036
7.52136e-06
-0.000718251
0.000796209
0.000740831
9.60192e-07
0.00437398
0.00162844
-0.000247417
-0.000904782
-0.00087929
-0.001018
-0.00091814
0.00482276
0.00101385
-0.000194919
0.00528578
0.000678795
-0.000122398
0.000378519
-5.86797e-05
0.00128517
-3.04864e-05
4.50973e-06
0.001224
-0.000103532
1.54651e-05
0.00110068
-0.000204267
2.81302e-05
0.000233637
-0.000360346
4.39784e-05
0.000206491
0.000237519
0.000209263
0.000216843
-0.00019767
7.85845e-06
0.000218368
0.000290581
-0.000288269
4.52219e-06
1.43032e-06
1.49349e-06
-3.18751e-06
-3.04131e-06
-0.000117891
3.74914e-07
-6.4342e-05
-0.00102389
1.02269e-05
9.83155e-06
2.97151e-05
3.33641e-05
6.3773e-06
8.80406e-06
2.74676e-05
2.18019e-05
6.40248e-06
-6.49285e-05
-0.00102439
9.95951e-06
1.01645e-05
3.35062e-05
2.95773e-05
9.06653e-06
2.76426e-05
2.21893e-05
6.8089e-06
3.25939e-06
-6.12638e-06
-0.000109106
-2.90941e-06
-5.13155e-05
-1.49716e-06
-0.000596697
0.000595052
0.000763839
-3.64952e-05
-0.000689907
0.0036866
0.000977918
-0.000266822
-0.000709855
-0.00062977
-0.000721736
-0.000634259
0.00431969
0.000592666
-0.0002033
0.00490144
0.000389445
-0.00012615
0.00021681
-5.86372e-05
0.00121265
6.31009e-10
4.43239e-06
0.00112612
2.81818e-09
1.48571e-05
0.000947763
5.92072e-09
2.61713e-05
0.000157635
9.98502e-09
3.84245e-05
0.000149828
0.000159305
0.000151463
0.000135785
9.79103e-05
-7.2183e-05
6.01514e-06
-1.7501e-06
-6.80325e-07
-5.09307e-05
-6.51038e-05
7.60885e-07
-0.00102619
1.04965e-05
9.77158e-06
3.00862e-05
3.32687e-05
6.00125e-06
8.83523e-06
2.7322e-05
2.23029e-05
1.541e-07
6.49984e-07
-0.00107184
6.49001e-05
7.9182e-07
-0.00107193
1.00804e-05
3.62534e-07
-0.00102578
1.01867e-05
2.97158e-05
3.37714e-05
8.93885e-06
6.20079e-06
2.23395e-05
2.73365e-05
3.22479e-06
1.61102e-06
-1.7547e-06
-0.000131649
-0.000386059
0.000273339
0.000163261
-3.46067e-05
0.00321123
5.16879e-10
-0.000268062
-0.000502021
-0.000461586
-0.000504429
-0.000463607
0.00398876
-1.21985e-08
-0.000199984
0.00465041
-1.98789e-08
-0.00012235
-2.16124e-08
-5.58699e-05
0.00121266
3.04874e-05
4.43242e-06
0.00112612
0.000103538
1.48571e-05
0.000947767
0.000204277
2.61711e-05
0.000149871
0.000360366
3.84241e-05
0.000157591
0.000151511
0.000159263
3.88798e-09
8.13349e-05
7.22119e-05
5.66073e-06
-1.54301e-07
-3.74458e-06
9.59225e-07
-7.91983e-05
-6.52561e-05
6.25162e-06
-0.00102233
9.9409e-06
1.02204e-05
3.36457e-05
2.97534e-05
9.18187e-06
2.74868e-05
2.23141e-05
2.59863e-07
6.51133e-05
-0.00106869
6.44906e-05
6.52495e-05
-0.00106898
9.61737e-06
8.74626e-06
-0.00102321
1.05118e-05
3.31522e-05
2.99434e-05
6.47488e-06
2.19405e-05
2.76605e-05
8.27946e-08
3.65227e-06
1.28317e-06
-0.000105353
-2.40405e-09
0.000210521
-0.000163265
-3.48411e-05
0.00321125
-0.000977889
-0.000268055
-0.000461581
-0.000502044
-0.000463602
-0.000504464
0.00398877
-0.000592681
-0.000199986
0.00465042
-0.000389482
-0.00012235
-0.000216848
-5.58699e-05
0.00128518
5.43821e-05
4.50988e-06
0.00122401
0.000183382
1.54652e-05
0.00110069
0.000355938
2.81297e-05
0.000206518
0.000607363
4.39755e-05
0.000233617
0.000209298
0.000237504
-0.000135783
0.000148239
0.000197686
7.10885e-06
6.87327e-06
-6.30755e-06
3.22213e-06
-0.000109201
-7.13897e-08
1.0064e-05
-0.00102517
1.02618e-05
2.97039e-05
3.40865e-05
9.06049e-06
6.11991e-06
2.27063e-05
2.75603e-05
8.6856e-06
9.55717e-06
-0.00102461
1.07844e-05
3.29859e-05
3.04516e-05
6.14456e-06
2.22066e-05
2.7239e-05
5.83359e-06
6.09443e-06
-0.000107911
-3.29624e-06
2.99253e-06
-9.71454e-05
-6.77503e-06
0.000386077
0.000435681
-0.000763848
-3.47905e-05
0.00368661
-0.00162845
-0.000266815
-0.000629736
-0.000709868
-0.000634234
-0.000721757
0.00431973
-0.00101389
-0.000203304
0.00490147
-0.000678818
-0.000126148
-0.000378543
-5.8636e-05
0.00141364
6.81904e-05
4.54051e-06
0.00139138
0.000227983
1.59681e-05
0.00134562
0.000435968
2.98916e-05
0.000309965
0.00072591
4.83766e-05
0.000317943
0.000315285
0.000324433
-0.000218361
0.000274144
0.000258604
8.24022e-06
-0.000290579
0.000539517
9.83053e-06
-0.000245745
-2.89289e-06
-5.07332e-05
-1.51636e-06
3.25866e-06
-1.86664e-06
1.56709e-06
-0.000131451
1.18849e-07
1.05964e-06
3.68688e-06
-0.000105259
-3.3317e-06
2.96488e-06
-9.73053e-05
-6.84638e-06
0.000689911
-0.000648028
0.000754683
-0.000740822
-2.02116e-05
0.00437402
-0.00190121
-0.000247416
-0.000879287
-0.000904799
-0.000918142
-0.00101802
0.00482278
-0.001221
-0.000194918
0.0052858
-0.000826962
-0.000122393
-0.000463655
-5.86762e-05
0.00157324
7.15566e-05
4.38996e-06
0.0015922
0.000237213
1.56546e-05
0.00162378
0.000449068
2.96281e-05
0.00166171
0.000743902
4.92502e-05
0.000387502
0.00120381
7.75428e-05
0.000447344
0.000394474
0.000458079
-0.00026808
-0.000313573
-0.000271457
-0.000315905
-0.000406141
0.000338603
0.000462094
1.14275e-05
0.000802892
0.00079766
-0.00156753
2.65306e-05
0.00458993
-0.0029242
-9.28281e-05
-0.000925614
-0.00108414
-0.000979682
-0.0012091
0.000776326
0.000668769
0.000832016
0.000718265
0.00501606
-0.00189857
-0.00022023
0.00534181
-0.00127232
-0.000181879
0.00570197
-0.000856559
-0.000108505
-0.000483936
-5.3179e-05
0.00173885
6.60985e-05
4.01782e-06
0.00179554
0.000216378
1.42376e-05
0.00190338
0.000400497
2.6553e-05
0.00208908
0.000638588
4.3857e-05
0.00243853
0.000953469
6.92752e-05
0.000759357
0.00134988
9.07377e-05
-0.000423903
-0.000505324
-0.000432132
-0.0005127
0.000766242
0.000779275
0.000789043
-0.000832018
0.00113335
0.000484011
1.22891e-05
-0.000773777
0.00079467
-7.93047e-07
-0.00139803
0.00221501
-0.000786757
4.81989e-05
0.00568064
-0.00311084
0.000298394
0.00106859
0.000994393
0.00113977
0.00107681
-0.00161526
-0.00156124
-0.00167294
-0.00167771
0.00553277
-0.00235637
3.49328e-05
0.00569836
-0.00167093
-0.000124769
0.00584798
-0.00116283
-0.000128292
0.00611007
-0.000793709
-7.57126e-05
-0.000453149
-3.80211e-05
0.0018893
5.52322e-05
3.42298e-06
0.00197147
0.000178868
1.16538e-05
0.00212483
0.000324032
1.99205e-05
0.0023774
0.000499127
2.75669e-05
0.00278234
0.000707378
3.08812e-05
0.00343353
0.000924294
1.92282e-05
0.00102699
0.00104594
-5.13934e-06
-0.000377638
-0.000324533
-0.000386865
-0.000326084
0.000991547
0.00106188
0.00102483
-0.000411039
0.00111481
0.000366268
-7.78733e-07
-0.00100118
0.00192644
0.000417534
-1.10553e-06
-0.00127498
-0.00166576
0.00161264
0.000111531
2.45389e-06
-0.00167729
0.00180607
-6.79294e-05
7.75051e-06
-0.00205946
0.00257824
-0.000447341
1.92777e-05
0.000814792
-0.00187363
0.00181693
-0.000692643
2.26075e-05
0.00679848
-0.00228529
0.000225689
0.000707453
0.000751645
0.000739253
0.000800591
-0.00177447
-0.00168408
-0.00181658
-0.00176972
0.00634694
-0.00220383
0.00017672
0.0062288
-0.00181528
6.24956e-05
0.00624841
-0.00135884
-3.04442e-05
0.00627238
-0.000982083
-4.66594e-05
0.00646283
-0.000682747
-3.10254e-05
-0.000393102
-1.56204e-05
0.00201335
4.18653e-05
3.01034e-06
0.00210981
0.000134393
9.90569e-06
0.00228495
0.000239148
1.61329e-05
0.0025597
0.000357907
2.06713e-05
0.00296525
0.000487296
2.11658e-05
0.00353181
0.000607194
1.44245e-05
0.00422147
0.000674669
4.94928e-06
0.00510746
0.000675417
2.04723e-06
-0.00028276
-0.00029317
-0.000293792
-0.000297959
0.00608819
0.000499442
9.50894e-06
-0.000288366
-0.000210631
-0.000293472
-0.000212386
0.00676255
5.48984e-05
2.83051e-05
-8.67646e-05
-9.76936e-06
-8.78684e-05
-7.83715e-06
0.00726172
-0.000458855
5.5706e-05
9.5788e-05
0.000172195
9.86998e-05
0.000178134
0.00723551
-0.00106368
8.73687e-05
0.000386649
0.000446795
0.000399294
0.000471295
0.00708066
-0.00143145
0.000113504
0.000560217
0.0005076
0.000584976
0.000533209
0.00691845
-0.00155467
0.000123803
0.00674836
-0.00150602
9.89998e-05
0.0066708
-0.00128936
4.48449e-05
0.00664258
-0.00100985
-3.2017e-06
0.00660714
-0.000752589
-1.94949e-05
0.00675551
-0.000532034
-1.44148e-05
-0.000309326
-6.55477e-06
0.00210658
2.77733e-05
2.74393e-06
0.00220995
8.86325e-05
8.83722e-06
0.00239342
0.000155582
1.42083e-05
0.00267026
0.000227798
1.81668e-05
0.00305665
0.000301105
1.97409e-05
0.00356282
0.000362352
1.84173e-05
0.00417546
0.000390021
1.63559e-05
0.00488914
0.000361664
1.70159e-05
0.00562162
0.000240521
2.25274e-05
0.00622727
-1.22722e-05
3.40297e-05
0.00667474
-0.000314559
4.93823e-05
0.00687422
-0.000636194
6.55079e-05
0.00693851
-0.000861264
7.72096e-05
0.00695402
-0.00095646
7.80652e-05
0.00694651
-0.000938798
6.36458e-05
0.0069398
-0.000824177
3.73518e-05
0.00690916
-0.000665299
1.22198e-05
0.00684902
-0.00050714
-6.07268e-07
0.00697602
-0.000362702
-2.08765e-06
-0.000211532
-1.82476e-07
0.00216813
1.37836e-05
2.60441e-06
0.00227434
4.38067e-05
8.30267e-06
0.00245982
7.62439e-05
1.34042e-05
0.00273239
0.000110173
1.74911e-05
0.00309964
0.000142966
2.01829e-05
0.00356288
0.000168349
2.15299e-05
0.00411109
0.000176467
2.25467e-05
0.00472136
0.000155645
2.47654e-05
0.00534627
9.06312e-05
2.90911e-05
0.00590211
-2.69709e-05
3.60223e-05
0.00635353
-0.000168892
4.44288e-05
0.00666669
-0.000313029
5.23522e-05
0.00687447
-0.000418539
5.70748e-05
0.00701737
-0.000466941
5.56937e-05
0.00711164
-0.000460179
4.67199e-05
0.00715805
-0.00040782
3.21728e-05
0.0071355
-0.000331699
1.74848e-05
0.00705992
-0.000250896
7.78964e-06
0.00716693
-0.000175036
4.05226e-06
-0.000101918
3.05266e-06
0.0021985
2.54847e-06
0.00230558
8.08899e-06
0.00249107
1.31262e-05
0.00276023
1.73634e-05
0.00311673
2.06152e-05
0.00355855
2.29957e-05
0.00407346
2.50749e-05
0.00463631
2.76388e-05
0.00520376
3.14773e-05
0.00572019
3.60062e-05
0.00615228
4.08981e-05
0.00648191
4.50085e-05
0.00672328
4.68966e-05
0.00689966
4.50835e-05
0.00702204
3.87711e-05
0.00708416
2.9103e-05
0.00706858
1.88767e-05
0.00700268
1.09353e-05
0.0071263
6.58357e-06
4.39758e-06
0.00220215
-1.37347e-05
4.92157e-06
0.00230933
-4.36398e-05
1.57499e-05
0.00249486
-7.60108e-05
2.57027e-05
0.00276405
-0.000109967
3.40804e-05
0.00312085
-0.000143042
4.04364e-05
0.00356344
-0.000168945
4.50848e-05
0.00407975
-0.00017756
4.89438e-05
0.00464479
-0.00015707
5.34984e-05
0.00521435
-9.12288e-05
6.03606e-05
0.00573295
2.71724e-05
6.8544e-05
0.00616643
0.000170863
7.72968e-05
0.00649645
0.000317156
8.43311e-05
0.00673731
0.0004244
8.72653e-05
0.00691271
0.000473223
8.37012e-05
0.00703428
0.000465041
7.23386e-05
0.00709634
0.000409732
5.51986e-05
0.00708148
0.000330805
3.67797e-05
0.00701561
0.000248981
2.27481e-05
0.007138
0.000173572
1.51491e-05
0.000101209
9.91887e-06
0.0021719
-2.76742e-05
5.01539e-06
0.00227819
-8.82316e-05
1.61148e-05
0.00246366
-0.000154999
2.616e-05
0.00273623
-0.000227277
3.41914e-05
0.00310381
-0.000301267
3.94608e-05
0.0035683
-0.000364027
4.20445e-05
0.00411911
-0.000393536
4.3896e-05
0.00473326
-0.000366564
4.80301e-05
0.00536285
-0.000244581
5.58528e-05
0.00592242
1.15895e-05
6.81256e-05
0.00637664
0.000318826
8.26875e-05
0.00669055
0.000646988
9.61606e-05
0.00689684
0.000877345
0.000104217
0.00703678
0.000973839
0.000102001
0.00712796
0.000952259
8.66674e-05
0.00717269
0.000829544
6.12863e-05
0.00715028
0.000663177
3.47923e-05
0.00707454
0.000502587
1.73043e-05
0.00718008
0.000359363
1.07254e-05
0.000209955
7.52747e-06
0.0021106
-4.16372e-05
5.24362e-06
0.0022141
-0.000133654
1.70146e-05
0.00239746
-0.000237881
2.74639e-05
0.00267409
-0.000356471
3.50699e-05
0.00306062
-0.000486783
3.78656e-05
0.00356897
-0.000609913
3.46467e-05
0.00418595
-0.000681432
3.03e-05
0.00490696
-0.000686346
3.13043e-05
0.00564843
-0.000510341
4.15245e-05
0.00626038
-5.77379e-05
6.26752e-05
0.00671335
0.000465532
8.96572e-05
0.00691345
0.00108611
0.000117463
0.00697315
0.00146638
0.000138826
0.0069814
0.00159278
0.000141355
0.00696484
0.00153607
0.000118583
0.00695416
0.00129923
7.30005e-05
0.00692486
0.00100327
2.62818e-05
0.00686547
0.000742538
2.38751e-06
0.00699103
0.000525457
-2.24798e-07
0.000306017
1.64522e-06
0.00201792
-5.49013e-05
5.69828e-06
0.00211467
-0.000177695
1.88668e-05
0.00228995
-0.000321807
3.07584e-05
0.00256439
-0.000495733
3.90897e-05
0.00296965
-0.000703768
3.87178e-05
0.00354004
-0.000924223
2.11082e-05
0.00423827
-0.00105435
1.35483e-06
0.00513919
-0.000293824
-4.04623e-06
-0.000300817
-0.000294141
-0.000298274
0.00613733
-0.000298473
1.0352e-05
-0.000216317
-0.000297981
-0.00021316
0.00682296
-9.14066e-05
4.87834e-05
-1.0065e-05
-9.02691e-05
-8.03092e-06
0.00733581
9.49394e-05
9.958e-05
0.000175395
9.9098e-05
0.000179036
0.00731269
0.00039539
0.000158005
0.000468626
0.000399971
0.000474798
0.00714861
0.000581727
0.000212542
0.000531347
0.000588334
0.000541867
0.00696603
0.00236147
0.000228872
0.00677037
0.00226715
0.000189939
0.00668281
0.00183391
9.06162e-05
0.00665925
0.00134506
-4.99632e-06
0.00662601
0.000964872
-3.52774e-05
0.00677335
0.000671817
-2.41766e-05
0.00038743
-1.08227e-05
0.00189474
-6.57421e-05
6.46355e-06
0.00197782
-0.000215182
2.21462e-05
0.0021324
-0.000398028
3.802e-05
0.00238561
-0.000633909
5.28054e-05
0.00278829
-0.0009452
5.91119e-05
0.00344534
-0.00134089
2.3496e-05
0.00101186
-0.000383359
-3.51892e-05
-0.000323649
-0.000379947
-0.000317089
0.00104848
0.00101289
0.00104802
2.45484e-06
0.00114261
-0.000376624
-6.06801e-06
4.71107e-08
0.0014835
-0.00043024
-4.24888e-06
-0.00129144
-6.00505e-06
-0.0016554
0.00174421
-0.00011282
5.27523e-06
-1.32073e-05
-0.00179887
0.00190066
6.52889e-05
1.75541e-05
-2.44487e-05
-0.00196242
0.0019827
0.000450395
3.63667e-05
-0.00187034
-3.91197e-05
0.00180817
0.000713927
5.91545e-05
0.00687003
0.000736546
0.000442091
0.00079265
0.000742337
0.000806741
-0.00174334
-0.00181059
-0.00174368
-0.00181138
0.00636146
0.00320616
0.000381475
0.00622711
0.00235498
0.000164327
0.00626219
0.00162941
-4.84292e-05
0.00629191
0.0011296
-8.38992e-05
0.00648244
0.000774254
-5.40498e-05
0.000443378
-2.80829e-05
0.00174554
-7.12521e-05
7.41162e-06
0.00180446
-0.00023638
2.63847e-05
0.00191706
-0.00044796
4.94083e-05
0.0021112
-0.000743873
8.3799e-05
0.00246496
-0.00121027
0.000149596
0.000776142
-0.000432222
0.000233918
0.000768452
0.000775984
0.000764311
-0.000510956
-0.000429342
-0.000508128
-1.38973e-05
0.000912619
-0.000491561
1.92186e-05
-5.67211e-06
-0.00100733
0.00140176
-0.000770941
7.70226e-06
0.000421086
3.0709e-06
0.000971096
-0.00094323
-5.10857e-06
-5.48165e-05
-0.00143082
0.00231057
8.21667e-05
-0.000826966
-7.2679e-05
-0.00179413
0.00176825
0.00079877
0.000120956
0.00562378
0.00110893
0.000770174
-0.00162922
-0.00164612
-0.001622
-0.0016375
0.0010345
0.00109972
0.00103352
0.00549657
0.00288941
9.22247e-05
0.00572378
0.00186963
-0.000322153
0.00588729
0.00125142
-0.000284163
0.00614508
0.000841722
-0.00015243
0.000476799
-7.79823e-05
0.00158049
-6.80385e-05
8.1703e-06
0.00160199
-0.00022787
2.92954e-05
0.00163849
-0.000436655
5.59139e-05
0.00168331
-0.000729943
9.57476e-05
0.000455798
-0.000273334
0.000166332
0.000392436
0.000459555
0.00039376
-0.00031766
-0.000271923
-0.000315331
-2.4935e-05
0.000503127
-0.000471123
3.91506e-05
-1.12143e-05
0.000809434
-0.000796671
1.80519e-05
-8.70927e-05
-0.00159726
0.00117706
0.00155796
0.000152746
0.00455313
0.00079688
-0.000261966
-0.00112806
-0.000928228
-0.00111083
-0.000910193
0.000690032
0.00078974
0.000683629
0.00505942
0.00189923
-0.000547658
0.00539463
0.00121695
-0.000392084
0.00574755
0.000820714
-0.000219408
0.000460819
-0.000108162
0.00142086
-5.43789e-05
8.51492e-06
0.00140079
-0.000183818
3.01024e-05
0.00135907
-0.000357979
5.68959e-05
0.000324626
-0.000614121
9.56009e-05
0.000315502
0.000327654
0.000317268
-1.76803e-05
0.000320271
-0.000263889
2.66366e-05
-2.72146e-05
0.000412496
0.000444166
-0.000533378
4.46901e-05
-0.000320929
9.27165e-05
-7.21204e-07
2.07465e-06
-0.00014687
0.000147281
-1.87915e-06
9.25537e-07
1.23707e-07
-0.000229498
-4.84227e-06
-0.000783656
0.000810967
1.13673e-05
-0.000750238
2.9128e-05
0.000849839
0.000755677
-4.41203e-05
0.00442484
0.00163504
-0.000566859
-0.000958601
-0.000898103
-0.000957372
-0.000896482
0.00487892
0.00101655
-0.00040489
0.00533516
0.000679166
-0.000246236
0.000378845
-0.000116904
0.00129195
-3.05228e-05
8.51945e-06
0.00123217
-0.000103986
2.93518e-05
0.00111081
-0.000206031
5.37946e-05
0.000238398
-0.000365726
8.60017e-05
0.000208996
0.000239606
0.00021059
-1.53285e-05
0.0002212
-0.000202579
2.41544e-05
0.000222794
-9.09461e-06
0.00028485
-0.000283275
1.40861e-05
-5.36145e-07
2.86836e-06
0.000212324
3.67636e-07
1.42951e-06
-0.000340146
3.016e-07
-9.60914e-05
-0.00214554
9.94341e-06
1.06774e-05
5.16193e-05
5.91452e-05
6.56991e-06
1.73076e-05
5.10497e-05
3.77914e-05
6.32015e-06
-9.6348e-05
-0.00214649
1.06873e-05
1.00014e-05
5.93651e-05
5.16645e-05
1.74516e-05
5.13367e-05
3.81413e-05
1.03171e-05
0.000202998
-1.13675e-06
-6.4073e-06
-0.000314932
9.78285e-05
-3.563e-06
-0.000149861
5.32058e-07
6.95707e-05
-0.000571909
0.000596838
0.00074491
-0.000110358
-0.000694032
0.00374166
0.00098885
-0.00057763
-0.000719393
-0.00063539
-0.000721595
-0.000639799
0.00437552
0.000598742
-0.000414672
0.0049506
0.000392432
-0.000250268
0.000218139
-0.000114636
0.00121903
6.80965e-10
8.41379e-06
0.00113323
2.97696e-09
2.83261e-05
0.000955053
6.39746e-09
5.01444e-05
0.000159515
1.03836e-08
7.41027e-05
0.000151152
0.000160036
0.000152031
-1.19835e-05
0.000138935
9.78681e-05
-7.37869e-05
1.84001e-05
9.27451e-05
2.15911e-06
-8.63075e-07
-0.000146843
-9.71052e-05
4.09477e-07
-0.00214907
1.02602e-05
1.07804e-05
5.2023e-05
5.92903e-05
6.06821e-06
1.71182e-05
5.06817e-05
3.83451e-05
2.34832e-07
5.13418e-07
-0.00223662
9.71617e-05
6.73155e-07
-0.00223685
9.81443e-06
1.12522e-06
-0.00214962
1.07529e-05
5.20243e-05
5.98298e-05
1.70898e-05
6.28745e-06
3.82421e-05
5.08205e-05
0.00025034
4.54376e-06
-2.12077e-06
2.56407e-09
-0.00038414
7.03633e-05
-0.000377476
0.000271428
0.000161054
-0.000110307
0.00326477
5.62864e-09
-0.000551256
-0.000508595
-0.000468857
-0.000513961
-0.000473781
0.00404123
-1.0777e-08
-0.000397045
0.00469693
-1.74267e-08
-0.000237903
-1.9289e-08
-0.000107197
0.00121903
3.05238e-05
8.41384e-06
0.00113323
0.000103992
2.8326e-05
0.000955058
0.000206043
5.01437e-05
0.000151191
0.000365746
7.41002e-05
0.000159473
0.000152076
0.000160003
-1.12095e-05
2.99754e-09
8.11135e-05
7.38143e-05
1.68309e-05
0.000145905
1.84073e-06
-5.011e-08
8.44409e-07
-0.000231564
-9.66047e-05
6.10972e-06
-0.0021422
1.04464e-05
9.92282e-06
5.94654e-05
5.1857e-05
1.72942e-05
5.14089e-05
3.83263e-05
2.5492e-07
9.70048e-05
-0.00223013
9.6526e-05
9.70416e-05
-0.00222986
1.04699e-05
1.72302e-05
-0.00214251
1.01848e-05
5.92065e-05
5.20915e-05
6.44577e-06
3.78129e-05
5.09573e-05
0.000204331
-2.3608e-07
-1.18073e-07
-4.33021e-08
-0.000307329
6.95664e-05
-2.90332e-09
0.00021043
-0.000161059
-0.000107362
0.00326479
-0.000988827
-0.000551251
-0.000468842
-0.000508616
-0.00047377
-0.000513995
0.00404125
-0.000598756
-0.000397046
0.00469694
-0.000392465
-0.000237898
-0.000218174
-0.000107194
0.00129196
5.43797e-05
8.5197e-06
0.00123218
0.000183822
2.9352e-05
0.00111082
0.000357986
5.37931e-05
0.000209017
0.000614135
8.59948e-05
0.000238374
0.000210627
0.000239599
-1.37742e-05
-0.000138935
0.000148844
0.000202597
2.10683e-05
9.98051e-06
0.000202696
-6.42015e-06
-8.48566e-07
-0.000314703
2.13837e-07
9.74301e-06
-0.00214835
1.0403e-05
5.22278e-05
6.0018e-05
1.71122e-05
6.19272e-06
3.85623e-05
5.1034e-05
1.70965e-05
1.04569e-05
-0.00214639
1.02349e-05
5.91878e-05
5.20824e-05
6.31959e-06
3.86369e-05
5.1181e-05
0.000217243
6.24115e-06
6.40505e-06
-0.000312182
0.000191316
-4.66644e-06
3.51831e-06
-0.000286481
-1.0069e-05
7.14821e-05
0.000377492
0.000431974
-0.000744911
-0.000113616
0.00374169
-0.00163506
-0.000577621
-0.000635366
-0.000719396
-0.000639793
-0.000721601
0.0043756
-0.00101661
-0.000414677
0.00495063
-0.000679153
-0.000250263
-0.000378867
-0.000114629
0.00142086
6.80393e-05
8.51565e-06
0.00140079
0.000227874
3.01038e-05
0.00135908
0.000436661
5.68974e-05
0.000315497
0.00072995
9.56023e-05
0.000324624
0.000317276
0.000327667
-0.000222792
-1.67247e-05
0.000278226
0.000263886
2.56401e-05
-1.9657e-05
-0.000284848
0.000533384
3.08301e-05
-0.000246817
9.89222e-05
-3.43939e-06
-0.000149805
-1.08017e-06
0.000250436
4.53489e-06
-3.55821e-08
-2.16415e-06
-0.000384399
0.000203674
-1.03378e-07
-1.8041e-07
-1.29489e-07
-0.000306314
0.000190701
-4.70815e-06
3.5374e-06
-0.000285533
-1.00658e-05
0.000694019
-0.000641267
3.7571e-05
0.000763054
-0.000755668
-6.22196e-05
0.00442488
-0.00189923
-0.000566855
-0.000898106
-0.000958616
-0.000896495
-0.000957384
0.00487891
-0.00121696
-0.000404882
0.00533517
-0.000820735
-0.000246224
-0.000460836
-0.000116894
0.00158051
7.12532e-05
8.17147e-06
0.001602
0.000236384
2.92979e-05
0.0016385
0.000447968
5.59171e-05
0.00168331
0.000743883
9.57502e-05
0.000392407
0.00121027
0.000166325
0.000455835
0.000393741
0.000459598
-0.000273318
-0.000317719
-0.000271884
-0.000315358
-2.28567e-05
-0.000412501
0.000337715
0.000471099
3.76088e-05
-4.20734e-05
0.000783663
0.000805968
-0.00155799
6.92539e-05
0.00455317
-0.00288946
-0.000261956
-0.000928253
-0.00112805
-0.000910222
-0.0011108
0.000796837
0.000690089
0.000789684
0.000683681
0.00505945
-0.00186961
-0.000547648
0.00539462
-0.0012514
-0.000392075
0.00574757
-0.000841771
-0.000219399
-0.000476807
-0.000108154
0.00174555
6.57435e-05
7.41312e-06
0.00180447
0.000215188
2.63879e-05
0.00191706
0.00039804
4.94133e-05
0.00211118
0.00063393
8.38061e-05
0.00246489
0.000945255
0.000149605
0.000768342
0.0013409
0.000233911
-0.000432242
-0.000510972
-0.000429343
-0.000508113
0.000776204
0.000764226
0.000776045
-2.22522e-05
-0.000809453
0.00111262
0.000491506
3.37539e-05
-6.71391e-07
-0.00075148
0.000770948
4.41405e-07
-7.89781e-05
-0.00137407
0.00220561
-0.000798801
0.000123638
0.00562384
-0.00320617
0.000770156
0.00110892
0.00103454
0.00109969
0.00103354
-0.00164611
-0.00162927
-0.00163749
-0.00162203
0.00549658
-0.00235497
9.22249e-05
0.00572381
-0.00162943
-0.000322139
0.00588735
-0.00112961
-0.000284155
0.0061451
-0.000774258
-0.000152424
-0.000443377
-7.79747e-05
0.00189476
5.49031e-05
6.46492e-06
0.00197783
0.000177701
2.21492e-05
0.00213241
0.000321818
3.80246e-05
0.00238562
0.00049575
5.28117e-05
0.00278833
0.00070379
5.91194e-05
0.00344537
0.000924235
2.35005e-05
0.00104848
0.00105435
-3.51944e-05
-0.000383361
-0.00032363
-0.000379951
-0.000317071
0.00101186
0.00104802
0.00101289
-0.000421092
1.79331e-06
0.00113742
0.000376633
-4.01646e-06
-3.59203e-07
-0.000971099
0.00190002
0.000430238
-4.01846e-06
-0.00128937
-2.21129e-06
-0.00164046
0.00158822
0.000112798
1.02383e-06
-1.16695e-05
-0.00165245
0.0017808
-6.53001e-05
1.55936e-05
-2.97393e-05
-0.00203552
0.00256302
-0.000450422
4.21722e-05
0.000826991
-0.00190974
-4.93903e-05
0.0018606
-0.00071395
7.35955e-05
0.00687006
-0.00236148
0.000442063
0.000736553
0.000792683
0.000742351
0.000806767
-0.00181065
-0.00174332
-0.00181144
-0.00174367
0.00636149
-0.00226715
0.000381468
0.00622713
-0.0018339
0.000164333
0.00626221
-0.00134507
-4.84214e-05
0.00629188
-0.000964839
-8.3892e-05
0.00648245
-0.000671861
-5.40427e-05
-0.000387428
-2.80761e-05
0.00201795
4.16388e-05
5.69966e-06
0.00211469
0.000133658
1.88695e-05
0.00228997
0.000237889
3.07622e-05
0.00256442
0.000356482
3.90945e-05
0.00296968
0.000486795
3.87229e-05
0.00354006
0.000609921
2.11115e-05
0.00423828
0.000681438
1.35701e-06
0.0051392
0.00068636
-4.0455e-06
-0.000293824
-0.000300821
-0.000294152
-0.000298286
0.00613737
0.000510367
1.03453e-05
-0.000298465
-0.000216331
-0.000298012
-0.000213181
0.00682301
5.77436e-05
4.87793e-05
-9.1357e-05
-1.00764e-05
-9.02704e-05
-8.07872e-06
0.00733581
-0.000465502
9.95626e-05
9.49367e-05
0.000175436
9.90891e-05
0.00017902
0.00731266
-0.00108614
0.000157987
0.000395428
0.000468636
0.000399985
0.000474789
0.0071486
-0.00146642
0.000212521
0.000581782
0.000531298
0.000588353
0.000541857
0.00696604
-0.0015928
0.000228855
0.00677037
-0.00153606
0.000189929
0.00668282
-0.00129922
9.06118e-05
0.00665925
-0.00100326
-4.99653e-06
0.00662606
-0.000742539