/*--------------------------------*- C++ -*----------------------------------*\
  =========                 |
  \\      /  F ield         | OpenFOAM: The Open Source CFD Toolbox
   \\    /   O peration     | Website:  https://openfoam.org
    \\  /    A nd           | Version:  11
     \\/     M anipulation  |
\*---------------------------------------------------------------------------*/
FoamFile
{
    format      ascii;
    class       volScalarField;
    location    "0.0003";
    object      residualTracer;
}
// * * * * * * * * * * * * * * * * * * * * * * * * * * * * * * * * * * * * * //

dimensions      [0 0 0 0 0 0 0];

internalField   nonuniform List<scalar> 
21740
(
0
0
0
0
0
0
0
0
0
0
0
0
0
0
0
0
0
0
0
0
0
0
0
0
0
0
0
0
0
0
0
0
0
0
0
0
0
0
0
0
0
0
0
0
0
0
0
0
0
0
0
0
0
0
0
0
0
0
0
0
0
0
0
0
0
0
0
0
0
0
0
0
0
0
0
0
0
0
0
0
0
0
0
0
0
0
0
0
0
0
0
0
0
0
0
0
0
1.39811e-18
7.60954e-19
3.41972e-19
0
0
0
0
0
0
0
0
0
0
0
0
0
3.88074e-08
2.28077e-08
1.11025e-08
5.13188e-09
0
0
0
0
0
0
0
0
2.64872e-08
7.72766e-08
4.34044e-08
2.09267e-08
9.60938e-09
0
0
0
0
0
0
0
0
0
5.82242e-09
2.13543e-08
1.3918e-08
7.25291e-09
3.3899e-09
0
0
0
0
0
0
0
0
0
0
0
2.60743e-10
3.91179e-09
2.69228e-09
1.40967e-09
6.53481e-10
0
0
0
0
0
0
0
0
0
0
0
2.36929e-11
4.22477e-10
2.73479e-10
1.38798e-10
6.32427e-11
0
0
0
0
0
0
0
0
0
0
0
4.49389e-12
4.06279e-10
2.66629e-10
1.47362e-10
6.60414e-11
0
0
0
0
0
0
0
0
0
0
9.08404e-11
3.89002e-09
2.62717e-09
1.4823e-09
6.83387e-10
0
0
0
0
0
0
0
0
0
0
1.35713e-09
2.14037e-08
1.38737e-08
7.59732e-09
3.59289e-09
0
0
0
0
0
0
0
2.64939e-08
7.73554e-08
4.35759e-08
2.13993e-08
9.88078e-09
0
0
0
0
0
0
0
0
0
0
0
3.86423e-08
2.31533e-08
1.12982e-08
5.21964e-09
0
0
0
0
0
0
0
0
0
0
0
0
0
0
0
0
0
1.38822e-18
6.03111e-19
2.71039e-19
0
0
0
0
0
0
0
0
0
0
0
0
0
0
0
0
0
0
0
0
0
0
0
0
0
0
0
0
0
0
0
0
0
0
0
0
0
0
0
0
0
0
0
0
0
0
0
0
0
0
0
0
0
0
0
0
0
0
0
0
0
0
0
0
0
0
0
0
0
0
0
0
0
0
0
0
0
0
0
0
0
0
0
0
0
0
0
0
0
0
0
0
0
0
0
0
0
0
0
0
0
0
0
0
0
0
0
0
0
0
0
0
0
0
0
0
0
0
0
0
0
0
0
0
0
0
0
0
0
0
0
0
0
0
0
0
0
0
0
0
0
0
0
0
0
0
0
0
0
0
0
0
0
0
0
0
0
0
0
0
0
0
0
0
0
0
0
0
0
0
0
0
0
0
0
0
1.58337e-14
1.12889e-14
5.33325e-15
2.39857e-15
0
0
0
0
0
0
0
0
0
0
0
0
1.1528e-05
1.52041e-05
7.02327e-06
3.06868e-06
1.3686e-06
0
0
0
0
0
0
0
0
2.39656e-05
2.00462e-05
9.07249e-06
3.98579e-06
1.76684e-06
0
0
0
0
0
0
0
0
0
5.32267e-06
6.04109e-06
3.04579e-06
1.42613e-06
6.42852e-07
0
0
0
0
0
0
0
0
0
0
0
2.48574e-07
1.14378e-06
6.41019e-07
3.09473e-07
1.39825e-07
0
0
0
0
0
0
0
0
0
0
0
2.35704e-08
1.23912e-07
7.02803e-08
3.38519e-08
1.5221e-08
0
0
0
0
0
0
0
0
0
0
0
4.80874e-09
1.22901e-07
7.08632e-08
3.6276e-08
1.63254e-08
0
0
0
0
0
0
0
0
0
0
8.81904e-08
1.15236e-06
6.50176e-07
3.31868e-07
1.52813e-07
0
0
0
0
0
0
0
0
0
0
1.25203e-06
6.06253e-06
3.10827e-06
1.50613e-06
6.93934e-07
0
0
0
0
0
0
0
2.39538e-05
2.0031e-05
9.17529e-06
4.08925e-06
1.82886e-06
0
0
0
0
0
0
0
0
0
0
1.15318e-05
1.51395e-05
7.07604e-06
3.10867e-06
1.38883e-06
0
0
0
0
0
0
0
0
0
0
0
0
0
0
0
0
1.59387e-14
1.12104e-14
4.80667e-15
2.16175e-15
0
0
0
0
0
0
0
0
0
0
0
0
0
0
0
0
0
0
0
0
0
0
0
0
0
0
0
0
0
0
0
0
0
0
0
0
0
0
0
0
0
0
0
0
0
0
0
0
0
0
0
0
0
0
0
0
0
0
0
0
0
0
0
0
0
0
0
0
0
0
0
0
0
0
0
0
0
0
0
0
0
0
0
0
0
0
0
0
0
0
0
0
0
0
0
0
0
0
0
0
0
0
0
0
0
0
0
0
0
0
0
0
0
0
0
0
0
0
0
0
0
0
0
0
0
0
0
0
0
0
0
0
0
0
0
0
0
0
0
0
0
0
0
0
0
0
0
0
0
0
0
0
0
0
0
0
0
0
0
0
0
0
0
0
0
0
0
0
0
0
0
0
0
0
0
0
3.89943e-11
1.88568e-11
8.04787e-12
3.61937e-12
0
0
0
0
0
0
0
0
0
0
0
0
0.00268638
0.00141802
0.000570739
0.000242604
0.000107821
0
0
0
0
0
0
0
0
0.00261248
0.00131261
0.000533008
0.000227986
0.000100709
0
0
0
0
0
0
0
0
0
0.000601315
0.000475504
0.000203378
8.92979e-05
3.94439e-05
0
0
0
0
0
0
0
0
0
0
0
3.61294e-05
0.000125992
5.67771e-05
2.51761e-05
1.10418e-05
0
0
0
0
0
0
0
0
0
0
0
7.39675e-06
1.55543e-05
7.25051e-06
3.25065e-06
1.42763e-06
0
0
0
0
0
0
0
0
0
0
0
1.61733e-06
1.56751e-05
7.44388e-06
3.4884e-06
1.55853e-06
0
0
0
0
0
0
0
0
0
0
1.96518e-05
0.000126967
5.82479e-05
2.66668e-05
1.19352e-05
0
0
0
0
0
0
0
0
0
0
0.000147774
0.000475422
0.000207285
9.18744e-05
4.08383e-05
0
0
0
0
0
0
0
0.00261069
0.00130758
0.000533551
0.000228376
0.000100898
0
0
0
0
0
0
0
0
0
0
0.00268675
0.00141276
0.000567882
0.000241364
0.000107266
0
0
0
0
0
0
0
0
0
0
0
0
0
0
0
0
3.92514e-11
1.87556e-11
7.98446e-12
3.59086e-12
0
0
0
0
0
0
0
0
0
0
0
0
0
0
0
0
0
0
0
0
0
0
0
0
0
0
0
0
0
0
0
0
0
0
0
0
0
0
0
0
0
0
0
0
0
0
0
0
0
0
0
0
0
0
0
0
0
0
0
0
0
0
0
0
0
0
0
0
0
0
0
0
0
0
0
0
0
0
0
0
0
0
0
0
0
4.05638e-12
5.24476e-12
1.47459e-12
2.2596e-13
4.0028e-14
8.08715e-15
1.83881e-15
4.65625e-16
1.30672e-16
4.0626e-17
1.40012e-17
5.33557e-18
2.22907e-18
1.00426e-18
4.72866e-19
0
0
0
0
0
2.71223e-09
3.64329e-09
1.86161e-09
2.86885e-10
5.15205e-11
1.05207e-11
2.39989e-12
6.03635e-13
1.66844e-13
5.08562e-14
1.71923e-14
6.45159e-15
2.66541e-15
1.19136e-15
5.58063e-16
0
0
0
0
0
6.99002e-07
8.41417e-07
4.91567e-07
3.57663e-07
6.6347e-08
1.40075e-08
3.26773e-09
8.23796e-10
2.23866e-10
6.62154e-11
2.16792e-11
7.93202e-12
3.21728e-12
1.41834e-12
6.57493e-13
0
0
0
0
0
8.9251e-05
8.42283e-05
4.14273e-05
6.00425e-05
1.25369e-05
2.81425e-06
6.88924e-07
1.76633e-07
4.71958e-08
1.33572e-08
4.16292e-09
1.47342e-09
5.84372e-10
2.5333e-10
1.15887e-10
0
0
0
0
0
0.00667264
0.0043589
0.000983512
7.33298e-05
8.59271e-06
1.31322e-06
3.67183e-07
7.60715e-08
9.214e-07
2.3637e-07
6.60232e-08
2.23879e-08
8.64794e-09
3.67588e-09
1.655e-09
0
0
0
0
0
0.367391
0.0760594
0.00335436
0.000371107
5.36251e-08
1.63422e-07
0.151023
0.0748539
0.0300742
0.0123791
0.0054863
0.00255771
0
0
0
0
0
0
0
0.0519554
0.0633998
0.0245616
0.00996265
0.00435643
0.00198885
0
0
0
0
0
0
0
0
0.0147534
0.0267229
0.0131836
0.00506417
0.00214242
0.000947416
0
0
0
0
0
0
4.95172e-13
0.219466
0.219371
1.14476e-15
5.7655e-20
0.0133176
0.00670154
0.00237565
0.000961654
0.000412499
0
0
0
0
0
0
0.219435
0.253834
0.253798
0.219426
0
0.0023387
0.000864484
0.000329364
0.000136877
5.87834e-05
0
0
0
0
0
0
0.219454
0.25379
0.253788
0.219397
0
0.00039488
0.000869227
0.00033506
0.000142311
6.1871e-05
0
0
0
0
0
0
0.219381
0.219446
3.19062e-17
4.31119e-17
0.00734917
0.00672972
0.0024118
0.000983229
0.000423604
0
0
0
0
0
0
0
0
0
1.0307e-07
0.0165234
0.0131921
0.00512826
0.00217102
0.000960459
0
0
0
0
0
0
0.029431
0.0633525
0.0244865
0.00994689
0.00435084
0.00198647
0
0
0
0
0
0.367392
0.0596126
0.00481456
2.96545e-08
0.151025
0.0748614
0.0300702
0.0123754
0.00548454
0.0025569
0
0
0
0
0
0.00667263
0.00435843
0.00114392
0.000125291
1.73647e-05
2.8084e-06
5.31051e-07
3.44166e-08
9.20914e-07
2.37913e-07
6.64593e-08
2.25334e-08
8.70425e-09
3.69994e-09
1.66587e-09
0
0
0
0
0
8.92494e-05
8.42354e-05
4.14319e-05
6.00603e-05
1.2547e-05
2.81935e-06
6.90181e-07
1.76957e-07
4.72828e-08
1.3382e-08
4.17066e-09
1.47617e-09
5.85467e-10
2.53805e-10
1.16105e-10
0
0
0
0
0
6.98984e-07
8.41517e-07
4.91371e-07
3.58104e-07
6.65921e-08
1.40594e-08
3.27988e-09
8.26866e-10
2.24701e-10
6.64627e-11
2.17603e-11
7.96169e-12
3.22932e-12
1.42366e-12
6.59956e-13
0
0
0
0
0
2.71217e-09
3.64384e-09
1.86174e-09
2.88736e-10
5.18537e-11
1.05888e-11
2.41546e-12
6.07557e-13
1.67928e-13
5.11869e-14
1.73042e-14
6.49357e-15
2.68275e-15
1.19911e-15
5.61697e-16
0
0
0
0
0
4.05635e-12
5.24577e-12
1.47589e-12
2.26327e-13
4.00936e-14
8.1005e-15
1.84186e-15
4.66402e-16
1.3089e-16
4.06941e-17
1.40247e-17
5.34452e-18
2.23282e-18
1.00595e-18
4.73662e-19
0
0
0
0
0
2.75683e-12
5.74706e-12
9.35302e-13
1.45574e-13
2.61654e-14
5.36379e-15
1.23678e-15
3.17139e-16
8.99225e-17
2.81728e-17
9.76113e-18
3.73288e-18
1.56309e-18
7.05255e-19
3.32277e-19
0
0
0
0
0
2.4442e-09
5.87933e-09
3.55009e-09
5.52288e-10
9.97273e-11
2.048e-11
4.69619e-12
1.18582e-12
3.28448e-13
1.00174e-13
3.38571e-14
1.27018e-14
5.24693e-15
2.34501e-15
1.09822e-15
0
0
0
0
0
7.85927e-07
1.77442e-06
1.33458e-06
9.4835e-07
1.77432e-07
3.76941e-08
8.8473e-09
2.23906e-09
6.08892e-10
1.79795e-10
5.87096e-11
2.14465e-11
8.69323e-12
3.83124e-12
1.77543e-12
0
0
0
0
0
0.00011876
0.000217677
0.000135656
0.000197406
4.11872e-05
9.34021e-06
2.31013e-06
5.95937e-07
1.59199e-07
4.48519e-08
1.3876e-08
4.89755e-09
1.94137e-09
8.41417e-10
3.84816e-10
0
0
0
0
0
0.00994429
0.0134753
0.00529121
0.0104386
0.00220697
0.000321078
5.86572e-05
5.08051e-06
3.93008e-06
9.77449e-07
2.65137e-07
8.96843e-08
3.46617e-08
1.47335e-08
6.63288e-09
0
0
0
0
0
0.511196
0.622393
0.711415
0.760439
0.0677777
0.120971
0.278506
0.115651
0.0448366
0.0181778
0.00797158
0.00368413
0
0
0
0
0
0.371671
0.756804
0.381292
0.152833
0.0559203
0.0220214
0.00947255
0.00428833
0
0
0
0
0
0.423566
0.31124
0.30985
0.528629
0.211269
0.0349522
0.0131851
0.00550553
0.00241858
0
0
0
0
0
0.236363
0.302108
0.703163
0.703124
0.352653
0.307663
0.231468
0.0186943
0.0065664
0.00263721
0.00112639
0
0
0
0
0
0.31161
0.703149
0.712792
0.712765
0.703111
0.348253
0.0272588
0.00248079
0.000939692
0.000388276
0.000166231
0
0
0
0
0
0.30983
0.703223
0.712816
0.712801
0.703183
0.364637
0.00439656
0.00250901
0.000965123
0.000404834
0.000174904
0
0
0
0
0
0.35318
0.703178
0.70314
0.416531
0.31064
0.0953653
0.0188712
0.00673196
0.00271987
0.00116583
0
0
0
0
0
0.366696
0.306145
0.348063
0.364228
0.311504
0.223286
0.0350957
0.0135111
0.0056457
0.00248136
0
0
0
0
0
0.388537
0.450696
0.152652
0.0558181
0.0219868
0.00945834
0.00428212
0
0
0
0
0
0.511197
0.717807
0.80291
0.221542
0.278505
0.115774
0.0448771
0.0181923
0.00797752
0.00368676
0
0
0
0
0
0.00994441
0.0134724
0.0468378
0.127051
0.0181633
0.00297291
0.000514767
9.70448e-05
2.7902e-06
6.69012e-07
1.81866e-07
6.15875e-08
2.38234e-08
1.0133e-08
4.5635e-09
0
0
0
0
0
0.000118758
0.000217643
0.000135673
0.000197435
4.11638e-05
9.33263e-06
2.30833e-06
5.95486e-07
1.59082e-07
4.48198e-08
1.38662e-08
4.89414e-09
1.94002e-09
8.4084e-10
3.84554e-10
0
0
0
0
0
7.85888e-07
1.77414e-06
1.33364e-06
9.48726e-07
1.77348e-07
3.76774e-08
8.84368e-09
2.23821e-09
6.08674e-10
1.79734e-10
5.86905e-11
2.14396e-11
8.69053e-12
3.83006e-12
1.77489e-12
0
0
0
0
0
2.44402e-09
5.8784e-09
3.54919e-09
5.53428e-10
9.9937e-11
2.05238e-11
4.7064e-12
1.18843e-12
3.2918e-13
1.004e-13
3.39338e-14
1.27307e-14
5.2589e-15
2.35037e-15
1.10073e-15
0
0
0
0
0
2.75659e-12
5.74624e-12
9.36214e-13
1.45673e-13
2.61841e-14
5.36776e-15
1.23772e-15
3.17386e-16
8.99938e-17
2.81955e-17
9.76907e-18
3.73594e-18
1.56438e-18
7.0584e-19
3.32553e-19
0
0
0
0
0
1.37664e-12
3.15438e-12
4.25816e-13
6.68926e-14
1.2137e-14
2.5111e-15
5.83997e-16
1.50846e-16
4.30109e-17
1.3528e-17
4.69919e-18
1.80009e-18
7.54576e-19
3.40674e-19
1.60521e-19
0
0
0
0
0
1.74047e-09
5.08166e-09
3.13128e-09
4.91775e-10
8.95592e-11
1.85507e-11
4.28794e-12
1.08963e-12
3.03088e-13
9.26571e-14
3.13525e-14
1.17699e-14
4.86423e-15
2.17457e-15
1.01833e-15
0
0
0
0
0
7.05544e-07
1.9158e-06
1.54434e-06
1.05274e-06
1.99103e-07
4.27478e-08
1.01371e-08
2.58535e-09
7.05928e-10
2.0865e-10
6.8088e-11
2.48605e-11
1.00763e-11
4.4408e-12
2.05753e-12
0
0
0
0
0
0.000121629
0.000259959
0.000165705
0.000224822
4.85084e-05
1.11849e-05
2.81513e-06
7.3619e-07
1.98056e-07
5.58203e-08
1.72109e-08
6.06416e-09
2.40296e-09
1.04147e-09
4.76243e-10
0
0
0
0
0
0.010657
0.0163692
0.00661847
0.0116814
0.00259629
0.000390615
7.14e-05
6.46034e-06
4.72213e-06
1.17154e-06
3.13832e-07
1.05762e-07
4.08547e-08
1.73675e-08
7.81887e-09
0
0
0
0
0
0.521775
0.671168
0.794688
0.824715
0.0687636
0.130912
0.295856
0.117748
0.0452462
0.0182835
0.00799516
0.00368488
0
0
0
0
0
0.402869
0.867869
0.453811
0.159731
0.0580506
0.0227816
0.0097653
0.00440694
0
0
0
0
0
0.458439
0.721419
0.723804
0.644224
0.237413
0.0368582
0.0138608
0.00576753
0.00252627
0
0
0
0
0
0.233706
0.721779
0.847446
0.847426
0.735111
0.717892
0.261325
0.0196956
0.00688859
0.00275787
0.00117487
0
0
0
0
0
0.721474
0.84743
0.854116
0.854097
0.847402
0.734111
0.031709
0.00266459
0.00100478
0.00041381
0.000176762
0
0
0
0
0
0.723859
0.847486
0.854148
0.854147
0.847458
0.739124
0.00528851
0.00269625
0.00103139
0.000431074
0.000185782
0
0
0
0
0
0.735195
0.847415
0.847424
0.747258
0.719547
0.108698
0.0198909
0.00706545
0.00284495
0.00121605
0
0
0
0
0
0.38313
0.717866
0.734051
0.739142
0.71926
0.253785
0.03702
0.014202
0.00591314
0.00259116
0
0
0
0
0
0.422134
0.550762
0.15955
0.0579648
0.0227467
0.00974993
0.00440006
0
0
0
0
0
0.521771
0.80482
0.915198
0.253394
0.295881
0.117866
0.0452851
0.0182981
0.00800124
0.00368759
0
0
0
0
0
0.0106569
0.0163663
0.0569873
0.141308
0.0208069
0.00352548
0.000648976
0.000115476
3.27969e-06
7.78532e-07
2.09e-07
7.05313e-08
2.72734e-08
1.16023e-08
5.22551e-09
0
0
0
0
0
0.000121622
0.000259928
0.000165719
0.000224798
4.84367e-05
1.11633e-05
2.80979e-06
7.34811e-07
1.9769e-07
5.57182e-08
1.71797e-08
6.05323e-09
2.39865e-09
1.03961e-09
4.75394e-10
0
0
0
0
0
7.05461e-07
1.91551e-06
1.54311e-06
1.05276e-06
1.98687e-07
4.266e-08
1.01166e-08
2.58019e-09
7.04535e-10
2.08241e-10
6.79557e-11
2.48124e-11
1.00568e-11
4.43226e-12
2.05358e-12
0
0
0
0
0
1.74016e-09
5.08074e-09
3.13009e-09
4.92165e-10
8.9633e-11
1.85665e-11
4.29171e-12
1.09062e-12
3.03367e-13
9.27437e-14
3.13822e-14
1.17811e-14
4.8689e-15
2.17667e-15
1.01931e-15
0
0
0
0
0
1.37632e-12
3.15369e-12
4.26179e-13
6.69504e-14
1.21477e-14
2.51332e-15
5.84516e-16
1.50981e-16
4.30493e-17
1.35401e-17
4.70339e-18
1.8017e-18
7.55253e-19
3.40981e-19
1.60666e-19
0
0
0
0
0
6.30719e-13
1.3748e-12
1.86615e-13
2.94495e-14
5.36546e-15
1.11425e-15
2.5993e-16
6.72768e-17
1.92014e-17
6.04056e-18
2.09796e-18
8.03469e-19
3.36727e-19
1.51984e-19
7.15809e-20
0
0
0
0
0
1.29321e-09
4.44201e-09
2.84772e-09
4.4812e-10
8.17702e-11
1.69689e-11
3.92694e-12
9.9776e-13
2.77143e-13
8.45515e-14
2.85531e-14
1.07029e-14
4.41876e-15
1.97395e-15
9.23756e-16
0
0
0
0
0
6.74504e-07
2.09696e-06
1.84133e-06
1.31417e-06
2.49251e-07
5.36766e-08
1.27578e-08
3.25288e-09
8.85697e-10
2.60698e-10
8.47443e-11
3.08612e-11
1.24889e-11
5.49848e-12
2.54555e-12
0
0
0
0
0
0.000130248
0.000305157
0.000200438
0.000260963
5.99672e-05
1.39753e-05
3.55468e-06
9.34786e-07
2.51644e-07
7.05511e-08
2.16295e-08
7.59515e-09
3.00464e-09
1.30107e-09
5.94546e-10
0
0
0
0
0
0.0116382
0.0185222
0.00754611
0.01205
0.00278917
0.000433084
8.11139e-05
7.32572e-06
4.36172e-06
1.0762e-06
2.85797e-07
9.59941e-08
3.7057e-08
1.5754e-08
7.09205e-09
0
0
0
0
0
0.520817
0.670437
0.786677
0.809067
0.0602455
0.121408
0.287518
0.112965
0.0430366
0.0173353
0.00756744
0.00348283
0
0
0
0
0
0.400702
0.868678
0.441773
0.151738
0.0545216
0.0213064
0.00911191
0.00410455
0
0
0
0
0
0.430911
0.862685
0.868704
0.639847
0.227825
0.0338765
0.0126736
0.00526286
0.00230145
0
0
0
0
0
0.213006
0.866337
0.923761
0.923748
0.879751
0.865583
0.239164
0.0169019
0.00589435
0.00235883
0.00100397
0
0
0
0
0
0.862738
0.923748
0.929813
0.929794
0.923716
0.871777
0.0290353
0.00225246
0.000847664
0.000348709
0.000148803
0
0
0
0
0
0.868926
0.923771
0.92983
0.929842
0.923775
0.878733
0.00493158
0.00227727
0.000870672
0.00036432
0.000157053
0
0
0
0
0
0.879776
0.9237
0.923723
0.886722
0.857692
0.0989177
0.0170498
0.00604871
0.00243676
0.00104119
0
0
0
0
0
0.352077
0.865662
0.871845
0.878793
0.857657
0.24155
0.0339836
0.0129661
0.00538639
0.00235622
0
0
0
0
0
0.416518
0.542823
0.151589
0.0544002
0.0212567
0.00909003
0.00409467
0
0
0
0
0
0.520816
0.799467
0.91371
0.235571
0.287539
0.113082
0.0430751
0.0173498
0.0075735
0.00348552
0
0
0
0
0
0.0116381
0.0185191
0.0617847
0.128879
0.0194622
0.0033817
0.00060898
0.000103713
3.07737e-06
7.32874e-07
1.95098e-07
6.56397e-08
2.53707e-08
1.07952e-08
4.86211e-09
0
0
0
0
0
0.000130239
0.000305119
0.000200467
0.000260919
5.98591e-05
1.39357e-05
3.54467e-06
9.32176e-07
2.50947e-07
7.0357e-08
2.15704e-08
7.57448e-09
2.99648e-09
1.29755e-09
5.9294e-10
0
0
0
0
0
6.74402e-07
2.09662e-06
1.83983e-06
1.31408e-06
2.486e-07
5.35373e-08
1.27249e-08
3.24454e-09
8.83434e-10
2.60034e-10
8.4529e-11
3.0783e-11
1.24573e-11
5.48458e-12
2.53912e-12
0
0
0
0
0
1.2929e-09
4.44104e-09
2.84662e-09
4.48462e-10
8.18338e-11
1.69824e-11
3.9301e-12
9.98568e-13
2.77369e-13
8.46207e-14
2.85765e-14
1.07117e-14
4.42241e-15
1.97558e-15
9.24523e-16
0
0
0
0
0
6.30493e-13
1.37432e-12
1.86733e-13
2.94688e-14
5.36907e-15
1.11502e-15
2.60113e-16
6.73248e-17
1.92152e-17
6.04494e-18
2.0995e-18
8.04058e-19
3.36975e-19
1.52097e-19
7.16341e-20
0
0
0
0
0
1.35564e-13
3.10205e-14
6.33921e-15
1.33597e-15
3.03334e-16
7.49676e-17
2.01095e-17
5.81833e-18
1.81126e-18
6.0834e-19
2.21557e-19
8.77149e-20
3.75948e-20
1.72215e-20
8.17382e-21
0
0
0
0
0
6.94503e-10
2.60634e-09
1.40008e-09
2.23509e-10
4.13231e-11
8.6809e-12
2.03105e-12
5.20768e-13
1.45665e-13
4.46631e-14
1.51354e-14
5.68697e-15
2.35163e-15
1.05153e-15
4.92205e-16
0
0
0
0
0
5.11123e-07
1.71753e-06
1.57853e-06
1.04881e-06
2.00666e-07
4.35576e-08
1.04263e-08
2.67213e-09
7.29675e-10
2.15013e-10
6.99115e-11
2.54616e-11
1.03045e-11
4.53668e-12
2.09966e-12
0
0
0
0
0
0.000115737
0.000282925
0.000188497
0.000241704
5.51552e-05
1.29611e-05
3.32444e-06
8.79107e-07
2.37212e-07
6.64236e-08
2.03251e-08
7.12802e-09
2.81806e-09
1.21982e-09
5.57164e-10
0
0
0
0
0
0.011198
0.0179179
0.00751783
0.011209
0.00258557
0.000411508
7.87937e-05
6.88207e-06
3.82365e-06
9.34418e-07
2.46548e-07
8.25614e-08
3.18353e-08
1.35272e-08
6.08663e-09
0
0
0
0
0
0.514778
0.664044
0.770552
0.785457
0.999916
0.999926
0.999944
0.0521933
0.112013
0.281351
0.10957
0.0414996
0.016677
0.00727082
0.00334274
0
0
0
0
0
0.394928
0.857339
0.999923
0.99821
0.99491
0.995716
0.995946
0.999518
0.999997
0.425222
0.146392
0.0521784
0.0203311
0.00868119
0.00390547
0
0
0
0
0
0.396373
0.999916
0.995174
0.974105
0.944532
0.950257
0.960613
0.98693
0.999152
0.6239
0.21824
0.0319264
0.0119041
0.00493773
0.002157
0
0
0
0
0
0.188803
0.998215
0.974123
0.968507
0.967569
0.967567
0.968557
0.954225
0.991563
0.999838
0.212255
0.0153194
0.00533533
0.00213536
0.000908426
0
0
0
0
0
0.999907
0.994901
0.944565
0.967575
0.970081
0.970069
0.967616
0.95454
0.978804
0.998931
0.0254592
0.00200703
0.000755488
0.000310908
0.000132647
0
0
0
0
0
0.999913
0.995695
0.950325
0.967591
0.97008
0.970082
0.967676
0.958582
0.976622
0.998541
0.00436264
0.00202832
0.000776906
0.000325696
0.000140494
0
0
0
0
0
0.999931
0.995931
0.960647
0.968588
0.967628
0.967672
0.968604
0.952121
0.985536
0.999556
0.0867096
0.0154394
0.00547822
0.00220845
0.0009435
0
0
0
0
0
0.31477
0.999507
0.986896
0.954257
0.954569
0.958619
0.952075
0.963464
0.995897
0.999948
0.226254
0.0319948
0.012165
0.00504722
0.00220535
0
0
0
0
0
0.404087
0.999979
0.999139
0.991551
0.978785
0.976631
0.985527
0.995901
0.999856
0.526475
0.14626
0.0520289
0.0202704
0.00865464
0.00389347
0
0
0
0
0
0.51478
0.782056
0.899217
0.999817
0.998912
0.998538
0.999554
0.99993
0.215005
0.281372
0.109689
0.0415391
0.0166919
0.00727704
0.0033455
0
0
0
0
0
0.0111979
0.0179134
0.0622567
0.112172
0.0172064
0.00300484
0.00051736
8.37566e-05
2.79119e-06
6.63408e-07
1.75424e-07
5.88328e-08
2.27113e-08
9.658e-09
4.34762e-09
0
0
0
0
0
0.000115729
0.000282849
0.000188527
0.000241656
5.50267e-05
1.29227e-05
3.31463e-06
8.76525e-07
2.36518e-07
6.623e-08
2.02662e-08
7.1074e-09
2.80993e-09
1.21631e-09
5.55562e-10
0
0
0
0
0
5.11045e-07
1.71701e-06
1.57714e-06
1.04886e-06
2.0005e-07
4.34246e-08
1.03946e-08
2.66405e-09
7.27476e-10
2.14367e-10
6.97018e-11
2.53854e-11
1.02737e-11
4.52314e-12
2.0934e-12
0
0
0
0
0
6.94319e-10
2.6054e-09
1.39969e-09
2.2361e-10
4.13425e-11
8.68517e-12
2.03208e-12
5.21039e-13
1.45742e-13
4.4687e-14
1.51435e-14
5.69006e-15
2.35292e-15
1.05211e-15
4.92477e-16
0
0
0
0
0
1.35493e-13
3.10337e-14
6.34238e-15
1.3367e-15
3.03508e-16
7.50126e-17
2.01219e-17
5.82199e-18
1.81241e-18
6.08729e-19
2.217e-19
8.77721e-20
3.76196e-20
1.7233e-20
8.17935e-21
0
0
0
0
0
1.49612e-15
5.46628e-16
1.53123e-16
4.08766e-17
1.11694e-17
3.20222e-18
9.68476e-19
3.08598e-19
1.03674e-19
3.69192e-20
1.40429e-20
5.73499e-21
2.51106e-21
1.16668e-21
5.57813e-22
0
0
0
0
0
1.97367e-10
7.37333e-10
1.17219e-10
2.12681e-11
4.38352e-12
1.01037e-12
2.55755e-13
7.00317e-14
2.06588e-14
6.60141e-15
2.3068e-15
8.85863e-16
3.71797e-16
1.67886e-16
7.89812e-17
0
0
0
0
0
2.61562e-07
9.23892e-07
8.70583e-07
4.28325e-07
8.32806e-08
1.83438e-08
4.44818e-09
1.15322e-09
3.17943e-10
9.43962e-11
3.0865e-11
1.1285e-11
4.57887e-12
2.01914e-12
9.35015e-13
0
0
0
0
0
7.60932e-05
0.000189893
0.000130946
0.000184801
3.88241e-05
9.11045e-06
2.33146e-06
6.15524e-07
1.65741e-07
4.6417e-08
1.421e-08
4.98515e-09
1.97122e-09
8.53239e-10
3.89593e-10
0
0
0
0
0
0.00878226
0.014277
0.00602726
0.0102551
0.00233626
0.000364689
6.84113e-05
5.9755e-06
4.02233e-06
9.74532e-07
2.55879e-07
8.54062e-08
3.28601e-08
1.39396e-08
6.26427e-09
0
0
0
0
0
0.502204
0.65131
0.766767
0.776058
0.0566799
0.11547
0.285962
0.109976
0.0415693
0.0166883
0.00726822
0.00333779
0
0
0
0
0
0.382362
0.853581
0.434032
0.148896
0.0530516
0.0206675
0.00881785
0.00396322
0
0
0
0
0
0.402929
0.993958
0.995309
0.632406
0.220945
0.0331452
0.0123686
0.00512584
0.00223724
0
0
0
0
0
0.193051
0.988995
0.989101
0.989096
0.989406
0.994406
0.230082
0.0171638
0.00596426
0.00238042
0.00101108
0
0
0
0
0
0.993961
0.989099
0.989393
0.98939
0.989146
0.996264
0.0268877
0.00227632
0.000857033
0.000352485
0.000150307
0
0
0
0
0
0.995307
0.989099
0.98939
0.989385
0.989165
0.996241
0.00449712
0.00230114
0.000880955
0.000368411
0.000158671
0
0
0
0
0
0.98943
0.989148
0.98916
0.98951
0.995697
0.0931161
0.0173035
0.00611965
0.00245819
0.00104807
0
0
0
0
0
0.322875
0.994386
0.996285
0.996241
0.995692
0.232224
0.0332244
0.0126514
0.00524525
0.00229013
0
0
0
0
0
0.393388
0.535297
0.148734
0.0528872
0.0206008
0.00878868
0.00395004
0
0
0
0
0
0.502207
0.780822
0.896698
0.224974
0.28598
0.110116
0.0416153
0.0167056
0.00727543
0.00334099
0
0
0
0
0
0.00878251
0.014275
0.0543793
0.118965
0.0179215
0.00308312
0.00055128
9.17684e-05
2.84232e-06
6.67093e-07
1.75548e-07
5.8681e-08
2.26015e-08
9.59481e-09
4.31358e-09
0
0
0
0
0
7.60926e-05
0.000189863
0.000130974
0.000184767
3.87349e-05
9.08921e-06
2.32602e-06
6.14083e-07
1.65352e-07
4.63081e-08
1.41766e-08
4.97346e-09
1.9666e-09
8.51241e-10
3.88682e-10
0
0
0
0
0
2.61545e-07
9.23733e-07
8.69927e-07
4.28726e-07
8.31344e-08
1.8311e-08
4.44009e-09
1.15108e-09
3.17346e-10
9.42168e-11
3.08058e-11
1.12632e-11
4.57001e-12
2.01523e-12
9.33205e-13
0
0
0
0
0
1.97333e-10
7.3716e-10
1.1732e-10
2.12854e-11
4.38693e-12
1.01113e-12
2.55942e-13
7.00819e-14
2.06733e-14
6.60597e-15
2.30838e-15
8.86466e-16
3.72051e-16
1.68001e-16
7.90358e-17
0
0
0
0
0
1.49646e-15
5.46826e-16
1.5319e-16
4.08963e-17
1.11752e-17
3.20396e-18
9.69016e-19
3.08773e-19
1.03733e-19
3.69404e-20
1.4051e-20
5.73837e-21
2.51258e-21
1.1674e-21
5.58165e-22
0
0
0
0
0
1.77114e-17
9.09028e-18
3.27383e-18
1.06168e-18
3.38388e-19
1.09729e-19
3.66336e-20
1.26326e-20
4.51693e-21
1.68788e-21
6.65659e-22
2.79062e-22
1.2443e-22
5.85157e-23
2.81501e-23
0
0
0
0
0
2.12588e-11
4.90719e-11
8.22322e-12
1.58102e-12
3.45063e-13
8.38953e-14
2.22796e-14
6.36168e-15
1.9442e-15
6.39353e-16
2.28454e-16
8.91862e-17
3.7865e-17
1.72298e-17
8.13692e-18
0
0
0
0
0
1.28408e-07
5.17579e-07
5.13276e-07
9.72343e-08
1.93866e-08
4.37251e-09
1.08229e-09
2.85658e-10
7.99551e-11
2.4032e-11
7.93305e-12
2.9205e-12
1.19052e-12
5.2655e-13
2.4415e-13
0
0
0
0
0
5.16241e-05
0.000139692
0.000102494
0.000158565
3.23269e-05
7.51759e-06
1.90607e-06
4.99081e-07
1.33335e-07
3.7157e-08
1.13386e-08
3.96894e-09
1.56686e-09
6.77361e-10
3.08963e-10
0
0
0
0
0
0.00721465
0.0123507
0.00518996
0.0101078
0.00227032
0.000346292
6.38047e-05
5.53897e-06
4.39748e-06
1.06378e-06
2.79057e-07
9.30492e-08
3.57636e-08
1.51554e-08
6.80413e-09
0
0
0
0
0
0.495169
0.644067
0.7722
0.783559
0.0634954
0.122466
0.291819
0.111581
0.0421827
0.0169321
0.00736949
0.00338125
0
0
0
0
0
0.374649
0.856501
0.448682
0.152874
0.0546234
0.0212976
0.00908435
0.00408064
0
0
0
0
0
0.423575
0.999032
0.999257
0.646004
0.229314
0.0347522
0.012998
0.00538626
0.00235012
0
0
0
0
0
0.205415
0.997857
0.996992
0.996996
0.998035
0.999143
0.25348
0.0187225
0.00652649
0.00260482
0.00110619
0
0
0
0
0
0.999032
0.996972
0.996969
0.99698
0.997019
0.999349
0.029149
0.00248344
0.000939259
0.000386859
0.000165058
0
0
0
0
0
0.999263
0.996974
0.996969
0.996979
0.997023
0.999326
0.00476977
0.0025106
0.000964447
0.000403375
0.000173698
0
0
0
0
0
0.998042
0.997005
0.99701
0.99796
0.999305
0.102221
0.0188836
0.00668995
0.00268563
0.00114442
0
0
0
0
0
0.345824
0.999136
0.999352
0.999331
0.999302
0.245374
0.034853
0.0133034
0.00551595
0.00240771
0
0
0
0
0
0.390597
0.549781
0.152687
0.0544599
0.021231
0.00905512
0.00406741
0
0
0
0
0
0.495172
0.78782
0.90122
0.241595
0.291838
0.111734
0.0422332
0.016951
0.00737738
0.00338475
0
0
0
0
0
0.00721513
0.0123495
0.0503471
0.13271
0.0197804
0.00339467
0.000637247
0.000110849
2.94975e-06
6.86641e-07
1.80499e-07
6.02692e-08
2.31874e-08
9.83274e-09
4.41617e-09
0
0
0
0
0
5.16278e-05
0.000139683
0.000102518
0.000158539
3.2266e-05
7.50342e-06
1.90249e-06
4.9814e-07
1.33083e-07
3.70867e-08
1.13171e-08
3.96142e-09
1.5639e-09
6.7608e-10
3.08379e-10
0
0
0
0
0
1.28416e-07
5.17563e-07
5.12927e-07
9.78456e-08
1.9493e-08
4.39472e-09
1.08739e-09
2.86915e-10
8.02861e-11
2.41264e-11
7.96297e-12
2.93119e-12
1.19479e-12
5.28413e-13
2.45008e-13
0
0
0
0
0
2.12588e-11
4.90685e-11
8.22991e-12
1.58232e-12
3.45348e-13
8.39641e-14
2.22976e-14
6.36676e-15
1.94572e-15
6.39847e-16
2.28629e-16
8.92545e-17
3.78942e-17
1.72432e-17
8.14332e-18
0
0
0
0
0
1.77156e-17
9.09335e-18
3.27516e-18
1.06216e-18
3.38551e-19
1.09784e-19
3.66526e-20
1.26392e-20
4.51931e-21
1.68877e-21
6.66014e-22
2.79214e-22
1.245e-22
5.855e-23
2.81672e-23
0
0
0
0
0
2.25636e-19
1.51739e-19
6.72609e-20
2.56663e-20
9.30131e-21
3.33803e-21
1.2071e-21
4.43141e-22
1.66346e-22
6.45176e-23
2.61639e-23
1.11929e-23
5.06155e-24
2.40262e-24
1.16116e-24
0
0
0
0
0
2.80153e-13
7.3193e-13
2.20055e-13
5.76519e-14
1.53027e-14
4.25606e-15
1.24508e-15
3.81843e-16
1.23081e-16
4.21123e-17
1.54912e-17
6.17401e-18
2.65869e-18
1.22115e-18
5.79402e-19
0
0
0
0
0
7.14759e-08
3.54439e-07
3.75626e-07
6.13159e-08
1.17344e-08
2.5496e-09
6.10172e-10
1.56318e-10
4.26517e-11
1.25569e-11
4.07987e-12
1.48488e-12
6.00526e-13
2.6416e-13
1.22078e-13
0
0
0
0
0
4.16258e-05
0.000124393
9.4657e-05
0.000150917
3.06397e-05
7.09578e-06
1.79219e-06
4.67362e-07
1.24316e-07
3.45043e-08
1.04965e-08
3.66577e-09
1.44476e-09
6.23774e-10
2.8422e-10
0
0
0
0
0
0.00673309
0.0119759
0.00505803
0.0100747
0.00222241
0.000337813
6.22772e-05
5.28961e-06
4.40095e-06
1.06432e-06
2.79022e-07
9.29914e-08
3.57225e-08
1.51293e-08
6.78781e-09
0
0
0
0
0
0.492492
0.641966
0.772216
0.781943
0.064324
0.123791
0.293343
0.111966
0.0423077
0.016975
0.00738376
0.00338535
0
0
0
0
0
0.372853
0.856231
0.4515
0.153617
0.0549067
0.021406
0.00912676
0.00409737
0
0
0
0
0
0.424493
0.999915
0.999936
0.648561
0.231277
0.0348896
0.0130572
0.00541066
0.00236009
0
0
0
0
0
0.204571
0.999745
0.999305
0.999329
0.999762
0.999947
0.253681
0.0187186
0.00653886
0.00261161
0.00110922
0
0
0
0
0
0.999914
0.999243
0.999292
0.999332
0.999373
0.999927
0.0287647
0.00246233
0.000933825
0.000385035
0.000164351
0
0
0
0
0
0.999932
0.999246
0.999293
0.999331
0.999375
0.999921
0.00467065
0.00248852
0.000958269
0.000401159
0.000172801
0
0
0
0
0
0.999759
0.999313
0.999335
0.999741
0.999937
0.101551
0.0188762
0.00669958
0.00269114
0.00114684
0
0
0
0
0
0.346597
0.999939
0.999925
0.999922
0.999936
0.246594
0.0349889
0.0133619
0.00554014
0.00241759
0
0
0
0
0
0.389402
0.552611
0.153431
0.0547412
0.0213385
0.00909713
0.00408394
0
0
0
0
0
0.492495
0.786908
0.901041
0.24424
0.293363
0.112121
0.0423593
0.0169943
0.00739181
0.00338892
0
0
0
0
0
0.00673353
0.0119748
0.0504125
0.133153
0.0198239
0.00340698
0.000646294
0.000112239
2.90938e-06
6.76934e-07
1.77763e-07
5.931e-08
2.28023e-08
9.6627e-09
4.33658e-09
0
0
0
0
0
4.16297e-05
0.000124393
9.46791e-05
0.000150895
3.05825e-05
7.0826e-06
1.78888e-06
4.665e-07
1.24087e-07
3.44408e-08
1.04772e-08
3.65903e-09
1.44211e-09
6.22629e-10
2.83698e-10
0
0
0
0
0
7.1485e-08
3.54463e-07
3.75364e-07
6.14299e-08
1.17574e-08
2.55481e-09
6.1146e-10
1.56655e-10
4.27454e-11
1.25848e-11
4.08903e-12
1.48824e-12
6.01889e-13
2.64762e-13
1.22357e-13
0
0
0
0
0
2.8036e-13
7.32516e-13
2.20236e-13
5.77001e-14
1.53156e-14
4.25965e-15
1.24612e-15
3.8216e-16
1.23182e-16
4.21465e-17
1.55037e-17
6.17901e-18
2.66087e-18
1.22216e-18
5.79891e-19
0
0
0
0
0
2.25693e-19
1.51791e-19
6.72879e-20
2.56777e-20
9.30571e-21
3.33968e-21
1.20771e-21
4.43365e-22
1.6643e-22
6.45501e-23
2.61772e-23
1.11987e-23
5.06432e-24
2.40399e-24
1.16185e-24
0
0
0
0
0
3.11775e-21
2.62906e-21
1.39022e-21
6.09012e-22
2.45737e-22
9.58116e-23
3.69088e-23
1.42115e-23
5.52836e-24
2.20156e-24
9.10173e-25
3.9475e-25
1.80196e-25
8.6059e-26
4.17091e-26
0
0
0
0
0
4.0007e-15
1.17337e-14
5.07177e-15
1.69613e-15
5.34643e-16
1.68399e-16
5.39767e-17
1.77117e-17
6.00259e-18
2.13113e-18
8.05264e-19
3.27089e-19
1.42688e-19
6.60928e-20
3.14894e-20
0
0
0
0
0
3.71091e-08
2.44652e-07
2.88728e-07
4.69544e-08
8.93431e-09
1.92788e-09
4.5793e-10
1.16407e-10
3.15204e-11
9.21567e-12
2.97695e-12
1.07862e-12
4.3479e-13
1.908e-13
8.803e-14
0
0
0
0
0
3.47085e-05
0.000111935
8.83301e-05
0.000144952
2.93928e-05
6.7964e-06
1.71368e-06
4.45974e-07
1.18342e-07
3.27629e-08
9.94459e-09
3.46703e-09
1.3647e-09
5.88628e-10
2.67976e-10
0
0
0
0
0
0.0063548
0.011546
0.00489851
0.00992871
0.00218084
0.000330953
6.09341e-05
5.12337e-06
4.3268e-06
1.04417e-06
2.73127e-07
9.08806e-08
3.4872e-08
1.47563e-08
6.61525e-09
0
0
0
0
0
0.489455
0.639482
0.770586
0.779211
0.0642663
0.123734
0.29345
0.111656
0.0421123
0.0168762
0.00733434
0.00336007
0
0
0
0
0
0.369838
0.854196
0.451787
0.153221
0.0546542
0.0212807
0.00906515
0.00406657
0
0
0
0
0
0.421029
0.999978
0.999979
0.649044
0.230748
0.0346492
0.0129531
0.00536325
0.00233785
0
0
0
0
0
0.20204
0.999959
0.999655
0.999719
0.999971
0.999998
0.252521
0.018545
0.00647286
0.00258367
0.00109678
0
0
0
0
0
0.999973
0.999489
0.999676
0.999779
0.999837
0.999992
0.0283657
0.00242498
0.000919293
0.00037889
0.000161668
0
0
0
0
0
0.999971
0.999496
0.999678
0.99978
0.999838
0.999991
0.00458014
0.00244982
0.00094276
0.000394507
0.00016987
0
0
0
0
0
0.999954
0.999671
0.99973
0.999968
0.999993
0.1006
0.0186959
0.00662879
0.00266101
0.00113338
0
0
0
0
0
0.343183
0.99999
0.999983
0.99998
0.999989
0.245771