/*--------------------------------*- C++ -*----------------------------------*\
  =========                 |
  \\      /  F ield         | OpenFOAM: The Open Source CFD Toolbox
   \\    /   O peration     | Website:  https://openfoam.org
    \\  /    A nd           | Version:  11
     \\/     M anipulation  |
\*---------------------------------------------------------------------------*/
FoamFile
{
    format      ascii;
    class       volScalarField;
    location    "0.0003";
    object      rho;
}
// * * * * * * * * * * * * * * * * * * * * * * * * * * * * * * * * * * * * * //

dimensions      [1 -3 0 0 0 0 0];

internalField   nonuniform List<scalar> 
21740
(
2.82786
2.80411
2.77914
2.75221
2.72253
2.68929
2.65179
2.60953
2.56248
2.51122
2.4571
2.40218
2.34928
2.30189
2.26401
2.23971
2.23174
2.23865
2.24402
2.25361
2.82806
2.80476
2.78026
2.7538
2.72458
2.69171
2.65435
2.61186
2.56411
2.51171
2.45627
2.40013
2.34647
2.29899
2.2617
2.23842
2.23155
2.2393
2.24506
2.25433
2.82847
2.80604
2.78246
2.75698
2.72872
2.69667
2.65973
2.61688
2.56763
2.51289
2.45447
2.39543
2.33972
2.29158
2.25508
2.23336
2.22823
2.2374
2.24444
2.25395
2.82905
2.8079
2.7857
2.76171
2.73501
2.70441
2.66843
2.62527
2.57368
2.51462
2.45096
2.3871
2.32862
2.27981
2.24542
2.22679
2.22467
2.23588
2.24449
2.25397
2.82978
2.81024
2.78984
2.76789
2.74346
2.71521
2.68128
2.64516
2.59495
2.53346
2.46352
2.39288
2.3261
2.26312
2.23219
2.21872
2.22103
2.23471
2.24506
2.2542
2.83061
2.81293
2.79466
2.77529
2.75398
2.72938
2.70169
2.66235
2.6101
2.29669
2.25316
2.21918
2.21227
2.21902
2.23506
2.24679
2.25488
2.83146
2.81573
2.79979
2.78349
2.76641
2.74772
2.72369
2.20183
2.21094
2.2204
2.23697
2.24955
2.2559
2.83223
2.81829
2.80458
2.79135
2.77897
2.76572
2.51514
2.51515
2.18247
2.20209
2.22602
2.24073
2.25295
2.25709
2.83282
2.82026
2.80831
2.79757
2.78896
2.78177
2.51515
2.51685
2.51685
2.51518
2.51511
2.21072
2.23028
2.24375
2.25609
2.25805
2.83314
2.82134
2.81038
2.80115
2.79566
2.51514
2.51685
2.51699
2.51699
2.51686
2.51513
2.2183
2.23326
2.24587
2.2582
2.25864
2.83314
2.82134
2.81038
2.80115
2.79717
2.51514
2.51685
2.51699
2.51699
2.51685
2.51517
2.22118
2.23326
2.24587
2.2582
2.25864
2.83282
2.82026
2.80831
2.79757
2.79294
2.51517
2.51686
2.51685
2.51526
2.51511
2.2148
2.23028
2.24375
2.25609
2.25805
2.83223
2.81829
2.80458
2.79135
2.78442
2.77433
2.51511
2.51513
2.51516
2.51511
2.20651
2.22602
2.24073
2.25294
2.25709
2.83146
2.81573
2.79979
2.78349
2.76641
2.75695
2.19335
2.21094
2.2204
2.23697
2.24954
2.25589
2.83061
2.81293
2.79466
2.77529
2.75398
2.72938
2.71141
2.67658
2.22935
2.21918
2.21227
2.21901
2.23506
2.24679
2.25488
2.82978
2.81024
2.78984
2.76789
2.74346
2.71521
2.68128
2.65261
2.59835
2.53427
2.4583
2.38157
2.31683
2.26312
2.23219
2.21872
2.22103
2.23471
2.24506
2.2542
2.82905
2.8079
2.7857
2.76171
2.73501
2.70441
2.66843
2.62527
2.57368
2.51462
2.45096
2.3871
2.32862
2.27981
2.24542
2.22679
2.22466
2.23588
2.24449
2.25397
2.82847
2.80604
2.78246
2.75698
2.72872
2.69667
2.65973
2.61688
2.56763
2.51289
2.45447
2.39543
2.33972
2.29158
2.25508
2.23336
2.22823
2.2374
2.24444
2.25395
2.82806
2.80476
2.78026
2.7538
2.72458
2.69171
2.65435
2.61186
2.56411
2.51171
2.45627
2.40013
2.34647
2.29899
2.2617
2.23842
2.23155
2.2393
2.24505
2.25433
2.82786
2.80411
2.77914
2.75221
2.72253
2.68929
2.65179
2.60953
2.56248
2.51122
2.4571
2.40218
2.34928
2.30189
2.26401
2.23971
2.23174
2.23865
2.24402
2.25361
2.82786
2.80411
2.77915
2.75224
2.72258
2.68937
2.65189
2.60964
2.56258
2.5113
2.45717
2.40225
2.34934
2.30197
2.26414
2.2399
2.23199
2.23891
2.24423
2.25375
2.82807
2.80477
2.78028
2.75385
2.72466
2.69184
2.65452
2.61204
2.56429
2.51185
2.45639
2.40024
2.34657
2.29911
2.26187
2.23867
2.23186
2.23962
2.2453
2.25448
2.82847
2.80606
2.7825
2.75707
2.72888
2.69691
2.66005
2.61723
2.56797
2.51317
2.4547
2.39563
2.33988
2.29173
2.25529
2.23368
2.22865
2.2378
2.24473
2.25412
2.82906
2.80792
2.78576
2.76184
2.73525
2.70482
2.66901
2.62591
2.57429
2.51511
2.45137
2.38749
2.32893
2.27999
2.24565
2.2272
2.22528
2.23644
2.24485
2.25419
2.82979
2.81028
2.78991
2.76803
2.74373
2.71575
2.68216
2.64615
2.59573
2.53399
2.46399
2.39373
2.32749
2.26297
2.23216
2.21898
2.22177
2.23537
2.24544
2.25444
2.83062
2.81297
2.79473
2.77539
2.75413
2.72972
2.70236
2.66317
2.6111
2.29625
2.25359
2.21802
2.2122
2.22017
2.23611
2.24735
2.25519
2.83147
2.81576
2.79984
2.78355
2.76648
2.74789
2.72398
2.20227
2.21157
2.22212
2.2383
2.25026
2.25625
2.83224
2.81831
2.80462
2.7914
2.77901
2.76572
2.52677
2.52677
2.18293
2.2045
2.22819
2.24226
2.25381
2.25748
2.83282
2.82029
2.80834
2.79761
2.78897
2.78179
2.52678
2.53272
2.53273
2.52671
2.52676
2.21268
2.2327
2.2454
2.25702
2.25845
2.83314
2.82137
2.81041
2.80118
2.79568
2.52676
2.53272
2.53283
2.53283
2.53273
2.5267
2.22056
2.23567
2.2475
2.25912
2.25902
2.83314
2.82137
2.81041
2.80118
2.7972
2.52678
2.53272
2.53283
2.53283
2.53272
2.52669
2.22346
2.23567
2.2475
2.25912
2.25902
2.83282
2.82029
2.80834
2.79761
2.79296
2.5267
2.53273
2.53273
2.52661
2.52671
2.21694
2.2327
2.2454
2.25702
2.25845
2.83224
2.81831
2.80462
2.7914
2.78445
2.77434
2.52674
2.5267
2.52669
2.52671
2.20855
2.22819
2.24226
2.25381
2.25748
2.83147
2.81576
2.79984
2.78355
2.76648
2.75704
2.1939
2.21157
2.22212
2.23829
2.25026
2.25625
2.83062
2.81297
2.79473
2.77539
2.75413
2.72972
2.71192
2.6773
2.2284
2.21802
2.21219
2.22017
2.23611
2.24735
2.25519
2.82979
2.81028
2.78991
2.76803
2.74373
2.71575
2.68216
2.65358
2.5994
2.53494
2.4587
2.38171
2.31733
2.26297
2.23216
2.21897
2.22177
2.23537
2.24544
2.25444
2.82906
2.80792
2.78576
2.76184
2.73525
2.70482
2.66901
2.62591
2.57429
2.51511
2.45137
2.38749
2.32893
2.27999
2.24565
2.2272
2.22528
2.23644
2.24485
2.25419
2.82847
2.80606
2.7825
2.75707
2.72888
2.69691
2.66005
2.61723
2.56797
2.51317
2.4547
2.39563
2.33988
2.29173
2.25529
2.23368
2.22865
2.2378
2.24473
2.25412
2.82807
2.80477
2.78028
2.75385
2.72466
2.69184
2.65452
2.61204
2.56429
2.51185
2.45639
2.40024
2.34657
2.29911
2.26187
2.23867
2.23186
2.23962
2.2453
2.25448
2.82786
2.80411
2.77915
2.75224
2.72258
2.68937
2.65189
2.60964
2.56258
2.5113
2.45717
2.40225
2.34934
2.30197
2.26414
2.2399
2.23198
2.23891
2.24423
2.25375
2.82786
2.80412
2.77917
2.75228
2.72266
2.68949
2.65204
2.60981
2.56273
2.51141
2.45723
2.40225
2.3493
2.3019
2.2641
2.23993
2.2321
2.23907
2.24439
2.25381
2.82808
2.80478
2.78032
2.75393
2.7248
2.69205
2.6548
2.61235
2.56457
2.51207
2.45653
2.40031
2.34656
2.29906
2.26185
2.23874
2.23205
2.23985
2.2455
2.25457
2.82849
2.80609
2.78258
2.75721
2.72914
2.69734
2.66063
2.61787
2.56856
2.51363
2.45502
2.39582
2.33989
2.2916
2.25515
2.23372
2.22897
2.23818
2.24503
2.25426
2.82908
2.80797
2.78587
2.76207
2.73569
2.70563
2.67015
2.6272
2.57546
2.51596
2.45199
2.38794
2.32888
2.27956
2.24515
2.2271
2.22594
2.23716
2.24535
2.25442
2.82982
2.81034
2.79004
2.76828
2.74426
2.71699
2.68414
2.64792
2.59754
2.53529
2.46494
2.39463
2.32762
2.26168
2.23041
2.21792
2.22291
2.23644
2.2461
2.25476
2.83064
2.81302
2.79483
2.77554
2.75427
2.72973
2.70351
2.66498
2.61337
2.29528
2.25089
2.21152
2.17864
2.20528
2.23046
2.24512
2.25426
2.83149
2.81581
2.79992
2.78364
2.76648
2.74797
2.72453
2.1967
2.18209
2.2093
2.23355
2.24851
2.25548
2.83226
2.81836
2.80468
2.79146
2.77902
2.7656
2.55319
2.55319
2.18284
2.19918
2.22621
2.24227
2.25421
2.25756
2.83284
2.82032
2.80841
2.79769
2.78902
2.78181
2.55317
2.565
2.56501
2.55321
2.55316
2.21668
2.23582
2.24773
2.25846
2.25893
2.83316
2.8214
2.81047
2.80127
2.79578
2.55318
2.565
2.56511
2.56511
2.565
2.55315
2.22605
2.24027
2.2505
2.26086
2.25963
2.83316
2.8214
2.81047
2.80127
2.7973
2.55315
2.56499
2.56511
2.56511
2.565
2.55319
2.22895
2.24027
2.25049
2.26086
2.25963
2.83284
2.82032
2.8084
2.79769
2.79304
2.5532
2.56502
2.56501
2.55328
2.55316
2.22209
2.23581
2.24773
2.25846
2.25893
2.83226
2.81836
2.80468
2.79146
2.78447
2.77425
2.55321
2.55317
2.55319
2.55314
2.20982
2.22621
2.24227
2.25421
2.25755
2.83149
2.81581
2.79992
2.78364
2.76648
2.75698
2.19063
2.18209
2.2093
2.23355
2.24851
2.25548
2.83064
2.81302
2.79483
2.77554
2.75427
2.72973
2.71279
2.67891
2.2241
2.21151
2.17864
2.20528
2.23046
2.24511
2.25426
2.82982
2.81034
2.79004
2.76828
2.74426
2.71699
2.68414
2.65554
2.6016
2.5365
2.45969
2.38259
2.31734
2.26168
2.23041
2.21792
2.22291
2.23644
2.2461
2.25476
2.82908
2.80797
2.78587
2.76207
2.73569
2.70563
2.67015
2.6272
2.57546
2.51596
2.45199
2.38794
2.32888
2.27956
2.24515
2.2271
2.22594
2.23716
2.24535
2.25442
2.82849
2.80609
2.78258
2.75721
2.72914
2.69734
2.66063
2.61787
2.56856
2.51363
2.45502
2.39582
2.33989
2.2916
2.25515
2.23372
2.22897
2.23818
2.24503
2.25426
2.82808
2.80478
2.78032
2.75393
2.7248
2.69205
2.6548
2.61235
2.56457
2.51207
2.45653
2.40031
2.34656
2.29906
2.26185
2.23874
2.23205
2.23985
2.2455
2.25457
2.82786
2.80412
2.77917
2.75228
2.72266
2.68949
2.65204
2.60981
2.56273
2.51141
2.45723
2.40225
2.3493
2.3019
2.2641
2.23993
2.2321
2.23906
2.24439
2.25381
2.82787
2.80412
2.77918
2.75232
2.72274
2.68963
2.65222
2.61001
2.5629
2.51154
2.4573
2.40227
2.34928
2.30188
2.26413
2.24007
2.23235
2.23937
2.24467
2.25395
2.82808
2.8048
2.78035
2.75401
2.72496
2.69231
2.65515
2.61273
2.56492
2.51234
2.45671
2.40042
2.3466
2.29907
2.26191
2.23895
2.23242
2.24026
2.24584
2.25474
2.8285
2.80612
2.78266
2.75738
2.72947
2.69789
2.66138
2.61873
2.56938
2.51423
2.45545
2.39612
2.33998
2.29153
2.25506
2.23385
2.22949
2.23878
2.2455
2.2545
2.8291
2.80803
2.786
2.76234
2.73627
2.70591
2.67097
2.62867
2.57657
2.51697
2.45282
2.3887
2.32889
2.27916
2.24475
2.2271
2.22714
2.23836
2.24612
2.25479
2.82984
2.81041
2.79019
2.7686
2.74497
2.65501
2.64569
2.64139
2.60014
2.53713
2.4663
2.39635
2.32807
2.25923
2.22403
2.21284
2.22426
2.23788
2.24694
2.2552
2.83067
2.81309
2.79494
2.77567
2.75334
1.42171
2.17072
2.63042
2.61251
2.29241
2.24379
1.53246
2.03161
1.99114
2.1108
2.18487
2.22452
2.83151
2.81586
2.79999
2.78367
2.76594
2.74589
2.72319
2.17415
1.88496
2.00894
2.13109
2.19956
2.23233
2.83227
2.8184
2.80474
2.79147
2.77883
2.76368
2.5953
2.5953
2.04544
1.96518
2.09308
2.18466
2.22917
2.24631
2.83286
2.82036
2.80846
2.79775
2.78897
2.78091
2.59526
1.5877
1.58793
2.5949
2.59549
2.08074
2.16254
2.22064
2.24782
2.25426
2.83317
2.82143
2.81053
2.80136
2.79587
2.5953
1.58776
1.51033
1.51041
1.58779
2.59518
2.20417
2.23476
2.24986
2.26126
2.25965
2.83317
2.82143
2.81053
2.80136
2.79741
2.59525
1.58771
1.51042
1.51042
1.58786
2.59501
2.23232
2.23476
2.24986
2.26125
2.25965
2.83286
2.82036
2.80846
2.79775
2.7931
2.59489
1.5879
1.58774
2.59444
2.5954
2.14419
2.16253
2.22064
2.24781
2.25426
2.83227
2.8184
2.80474
2.79147
2.78431
2.77266
2.59553
2.59522
2.59502
2.59541
2.04265
2.09307
2.18466
2.22917
2.24631
2.83151
2.81586
2.79999
2.78367
2.76594
2.75526
1.99588
1.88495
2.00893
2.13108
2.19956
2.23232
2.83067
2.81309
2.79494
2.77567
2.75334
1.42171
2.29066
2.62886
2.2109
1.53246
2.03162
1.99114
2.11079
2.18486
2.22452
2.82984
2.81041
2.79019
2.7686
2.74497
2.65501
2.64569
2.6481
2.60482
2.53865
2.46111
2.38487
2.31821
2.25923
2.22403
2.21284
2.22426
2.23788
2.24694
2.2552
2.8291
2.80803
2.786
2.76234
2.73627
2.70591
2.67097
2.62867
2.57657
2.51697
2.45281
2.3887
2.32889
2.27916
2.24475
2.2271
2.22714
2.23836
2.24612
2.25479
2.8285
2.80612
2.78266
2.75738
2.72947
2.69789
2.66138
2.61873
2.56938
2.51423
2.45545
2.39612
2.33998
2.29153
2.25506
2.23385
2.22949
2.23878
2.2455
2.2545
2.82808
2.8048
2.78035
2.75401
2.72496
2.69231
2.65515
2.61273
2.56492
2.51234
2.45671
2.40042
2.3466
2.29906
2.26191
2.23894
2.23242
2.24026
2.24584
2.25474
2.82787
2.80412
2.77918
2.75232
2.72274
2.68963
2.65222
2.61001
2.5629
2.51154
2.4573
2.40227
2.34928
2.30188
2.26412
2.24007
2.23235
2.23937
2.24466
2.25395
2.82787
2.8041
2.77916
2.75232
2.72278
2.68972
2.65236
2.61016
2.56302
2.51161
2.45732
2.40224
2.34922
2.30184
2.26417
2.24025
2.23267
2.23973
2.24499
2.2541
2.82808
2.80479
2.78036
2.75406
2.72509
2.69254
2.65546
2.61309
2.56523
2.51257
2.45685
2.40048
2.3466
2.29906
2.26199
2.23922
2.23287
2.24075
2.24625
2.25494
2.82851
2.80614
2.78271
2.75753
2.72977
2.69843
2.66214
2.6196
2.57021
2.51482
2.45585
2.39637
2.33999
2.29137
2.25497
2.23411
2.23015
2.23949
2.24605
2.25477
2.82912
2.80807
2.78611
2.7626
2.73682
2.7068
2.67155
2.62981
2.57712
2.51785
2.45355
2.38927
2.32852
2.27841
2.24424
2.22756
2.22854
2.23963
2.24697
2.2552
2.82986
2.81046
2.79032
2.76889
2.74569
2.62972
2.57177
2.60657
2.51095
2.51798
2.46448
2.39757
2.32797
2.25174
2.2173
2.21128
2.22635
2.23955
2.24797
2.2557
2.83069
2.81314
2.79502
2.77576
2.75292
1.21764
1.0461
0.952493
0.977456
1.8373
1.64743
1.34312
1.84188
1.88411
2.05615
2.15883
2.2123
2.83153
2.81589
2.80002
2.78359
2.76466
1.42902
0.979538
1.22959
1.63699
1.80139
2.01953
2.14548
2.2067
2.83229
2.81842
2.80474
2.79137
2.7783
1.35627
1.44454
1.44825
1.0208
1.56279
1.90577
2.09821
2.19079
2.22909
2.83287
2.82037
2.80847
2.79773
2.78872
1.69915
1.46411
0.916798
0.91683
1.36832
1.44982
1.393
2.04203
2.17317
2.2286
2.24592
2.83318
2.82144
2.81054
2.8014
2.79591
1.44383
0.916807
0.908124
0.908151
0.916857
1.37404
1.95569
2.22036
2.24587
2.26038
2.25908
2.83318
2.82144
2.81054
2.8014
2.79749
1.44803
0.91674
0.908101
0.908118
0.91679
1.34492
2.19152
2.22036
2.24587
2.26038
2.25908
2.83287
2.82037
2.80847
2.79773
2.79305
1.3674
0.91679
0.916825
1.25727
1.44591
1.55979
2.04202
2.17316
2.2286
2.24592
2.83229
2.81842
2.80474
2.79137
2.78387
1.44931
1.45314
1.37442
1.34559
1.44433
1.44389
1.90575
2.0982
2.19078
2.22909
2.83153
2.81589
2.80002
2.78359
2.76466
1.395
1.13372
1.637
1.80138
2.01953
2.14547
2.2067
2.83069
2.81314
2.79502
2.77576
2.75292
1.21765
1.01839
0.934649
1.50907
1.34311
1.84189
1.8841
2.05614
2.15882
2.2123
2.82986
2.81046
2.79032
2.76889
2.74569
2.62972
2.57179
2.29335
1.81092
2.38042
2.43375
2.38317
2.31127
2.25174
2.2173
2.21128
2.22635
2.23955
2.24797
2.2557
2.82912
2.80807
2.78611
2.7626
2.73682
2.7068
2.67155
2.62981
2.57712
2.51785
2.45354
2.38926
2.32851
2.27841
2.24424
2.22756
2.22854
2.23963
2.24697
2.2552
2.82851
2.80614
2.78271
2.75753
2.72977
2.69843
2.66214
2.6196
2.57021
2.51482
2.45585
2.39637
2.33998
2.29137
2.25497
2.23411
2.23015
2.23949
2.24605
2.25476
2.82808
2.80479
2.78036
2.75406
2.72509
2.69254
2.65546
2.61308
2.56523
2.51257
2.45685
2.40048
2.3466
2.29905
2.26199
2.23921
2.23287
2.24075
2.24625
2.25493
2.82787
2.8041
2.77916
2.75231
2.72278
2.68972
2.65236
2.61016
2.56302
2.51161
2.45731
2.40224
2.34922
2.30183
2.26416
2.24024
2.23266
2.23973
2.24499
2.2541
2.82786
2.80406
2.7791
2.75225
2.72273
2.6897
2.65238
2.61018
2.56302
2.51157
2.45724
2.40213
2.34911
2.30178
2.26422
2.24046
2.23302
2.24012
2.24535
2.25427
2.82808
2.80476
2.78032
2.75404
2.72511
2.69264
2.65564
2.61329
2.5654
2.51267
2.45688
2.40047
2.34656
2.29905
2.26212
2.23954
2.23337
2.24126
2.24668
2.25514
2.82851
2.80613
2.78272
2.75759
2.72994
2.69879
2.66268
2.62022
2.57079
2.51523
2.4561
2.39649
2.33996
2.29128
2.25505
2.23455
2.23088
2.24023
2.24663
2.25504
2.82912
2.80809
2.78616
2.76275
2.73719
2.70758
2.67244
2.63098
2.5782
2.51866
2.45408
2.38951
2.32824
2.27788
2.24409
2.22831
2.22982
2.2408
2.24781
2.25559
2.82987
2.81049
2.79039
2.76908
2.74618
2.62546
2.55141
2.59857
2.50448
2.51619
2.46476
2.39809
2.32715
2.2491
2.21559
2.21226
2.22835
2.24118
2.24906
2.2562
2.8307
2.81315
2.79505
2.7758
2.75292
1.19943
1.0003
0.889905
0.907726
1.82337
1.61099
1.31378
1.80371
1.88208
2.05758
2.16046
2.21329
2.83154
2.81589
2.8
2.78347
2.76414
1.37796
0.93554
1.1845
1.5924
1.79286
2.01703
2.14534
2.20683
2.83229
2.8184
2.80468
2.79119
2.7778
1.30318
0.916898
0.914647
0.996593
1.44475
1.89942
2.09712
2.19124
2.22924
2.83286
2.82034
2.80839
2.79759
2.78845
1.69393
0.916895
0.829915
0.829923
0.904762
0.921151
1.29166
2.04165
2.17513
2.23036
2.24648
2.83318
2.8214
2.81046
2.80129
2.79587
0.916842
0.829912
0.826179
0.826196
0.829951
0.905485
1.93154
2.2254
2.24966
2.26277
2.25982
2.83318
2.8214
2.81046
2.80129
2.79748
0.914569
0.829875
0.826154
0.826157
0.829916
0.901172
2.19216
2.2254
2.24966
2.26277
2.25981
2.83286
2.82034
2.80839
2.79759
2.79293
0.904689
0.829923
0.829919
0.893142
0.919288
1.51061
2.04165
2.17512
2.23036
2.24648
2.83229
2.8184
2.80468
2.79119
2.78346
1.4139
0.921094
0.90556
0.901161
0.919533
1.33421
1.89941
2.09712
2.19123
2.22923
2.83154
2.81589
2.8
2.78347
2.76414
1.34324
1.09376
1.59241
1.79285
2.01703
2.14534
2.20683
2.8307
2.81315
2.79505
2.7758
2.75292
1.19944
0.975994
0.887748
1.4602
1.31378
1.80372
1.88208
2.05757
2.16046
2.21329
2.82987
2.81049
2.79039
2.76908
2.74618
2.62546
2.55143
2.23556
1.76109
2.36292
2.42988
2.38241
2.30886
2.2491
2.21559
2.21226
2.22835
2.24117
2.24906
2.2562
2.82912
2.80809
2.78616
2.76275
2.73719
2.70758
2.67244
2.63098
2.5782
2.51865
2.45408
2.38951
2.32824
2.27788
2.24409
2.22831
2.22982
2.2408
2.24781
2.25559
2.82851
2.80613
2.78272
2.75759
2.72994
2.69879
2.66268
2.62022
2.57079
2.51523
2.4561
2.39649
2.33996
2.29128
2.25505
2.23455
2.23088
2.24022
2.24663
2.25504
2.82808
2.80476
2.78032
2.75404
2.72511
2.69264
2.65564
2.61329
2.5654
2.51267
2.45688
2.40047
2.34656
2.29905
2.26212
2.23954
2.23337
2.24126
2.24668
2.25514
2.82786
2.80406
2.7791
2.75225
2.72273
2.6897
2.65238
2.61018
2.56302
2.51157
2.45724
2.40213
2.34911
2.30178
2.26422
2.24046
2.23301
2.24012
2.24535
2.25427
2.82784
2.80397
2.77896
2.75208
2.72256
2.68954
2.65223
2.61003
2.56285
2.51137
2.45703
2.40193
2.34895
2.3017
2.26429
2.24069
2.23338
2.24052
2.24571
2.25443
2.82806
2.80469
2.78021
2.75391
2.725
2.69257
2.6556
2.61328
2.56535
2.51259
2.45676
2.40034
2.34646
2.29904
2.26228
2.23991
2.23388
2.24179
2.24713
2.25534
2.8285
2.80607
2.78264
2.75753
2.72994
2.69889
2.66289
2.62047
2.57104
2.51539
2.45616
2.39648
2.33991
2.2913
2.25528
2.23511
2.23164
2.24097
2.24723
2.25532
2.82912
2.80805
2.78612
2.76276
2.73732
2.70785
2.67264
2.63136
2.57859
2.51909
2.45433
2.38953
2.32815
2.27783
2.24441
2.22925
2.23104
2.24191
2.24864
2.25597
2.82987
2.81046
2.79037
2.76912
2.74639
2.61759
2.53516
2.59214
2.50261
2.51524
2.46466
2.39826
2.32712
2.24799
2.2153
2.21383
2.23019
2.24271
2.25015
2.25668
2.8307
2.81312
2.79501
2.77575
2.75282
1.19861
0.999739
0.893762
0.910583
1.83786
1.63202
1.32466
1.80613
1.89783
2.06831
2.1666
2.21632
2.83153
2.81584
2.79991
2.78329
2.7637
1.37715
0.936611
1.19546
1.6002
1.81709
2.03342
2.15451
2.21124
2.83228
2.81833
2.80455
2.79092
2.77737
1.33566
0.832651
0.826869
1.0053
1.4235
1.92908
2.11392
2.19987
2.23299
2.83285
2.82026
2.80823
2.79728
2.78809
1.7388
0.828492
0.798224
0.79823
0.819044
0.834705
1.30974
2.07594
2.19152
2.2382
2.2496
2.83316
2.82131
2.81028
2.80097
2.7956
0.832602
0.798212
0.795859
0.795874
0.798257
0.825235
1.96466
2.2369
2.25611
2.26633
2.26102
2.83316
2.82131
2.81028
2.80097
2.79724
0.826723
0.798196
0.795842
0.795843
0.798232
0.820484
2.20465
2.2369
2.25611
2.26633
2.26102
2.83285
2.82026
2.80823
2.79728
2.79262
0.81901
0.798237
0.798235
0.814284
0.836024
1.56352
2.07594
2.19151
2.2382
2.2496
2.83228
2.81833
2.80455
2.79092
2.78306
1.4581
0.834598
0.825145
0.82043
0.836016
1.32653
1.92907
2.11392
2.19987
2.23299
2.83153
2.81584
2.79991
2.78329
2.7637
1.34947
1.10254
1.60021
1.81709
2.03342
2.15451
2.21124
2.8307
2.81312
2.79501
2.77575
2.75282
1.19861
0.982174
0.889239
1.48074
1.32466
1.80613
1.89783
2.06831
2.1666
2.21632
2.82987
2.81046
2.79037
2.76912
2.74639
2.61759
2.53518
2.208
1.81504
2.37517
2.43149
2.38153
2.31008
2.24799
2.21531
2.21383
2.23019
2.24271
2.25015
2.25668
2.82912
2.80805
2.78612
2.76276
2.73732
2.70785
2.67264
2.63136
2.57859
2.51908
2.45433
2.38952
2.32815
2.27783
2.24441
2.22925
2.23104
2.24191
2.24864
2.25596
2.8285
2.80607
2.78264
2.75753
2.72994
2.69889
2.66288
2.62047
2.57104
2.51539
2.45616
2.39648
2.33991
2.2913
2.25528
2.23511
2.23163
2.24096
2.24723
2.25532
2.82806
2.80469
2.7802
2.75391
2.725
2.69257
2.6556
2.61328
2.56535
2.51258
2.45676
2.40034
2.34646
2.29904
2.26228
2.23991
2.23388
2.24178
2.24712
2.25534
2.82784
2.80397
2.77896
2.75208
2.72256
2.68954
2.65223
2.61003
2.56285
2.51137
2.45703
2.40193
2.34895
2.3017
2.26429
2.24069
2.23338
2.24052
2.24571
2.25443
2.8278
2.80384
2.77875
2.75181
2.72224
2.68921
2.65189
2.60967
2.56248
2.511
2.45666
2.40161
2.34871
2.30158
2.26434
2.24093
2.23375
2.24092
2.24607
2.25458
2.82803
2.80456
2.78001
2.75366
2.72473
2.69229
2.65534
2.61303
2.56509
2.5123
2.45648
2.40009
2.34628
2.299
2.26244
2.24028
2.23438
2.2423
2.24756
2.25554
2.82847
2.80597
2.78247
2.75733
2.72974
2.69873
2.66278
2.6204
2.57099
2.51528
2.45601
2.39633
2.33982
2.29134
2.25558
2.23569
2.23238
2.24168
2.24781
2.25558
2.82909
2.80796
2.78599
2.76262
2.73721
2.70795
2.67293
2.63165
2.57896
2.51927
2.45436
2.38946
2.32813
2.27799
2.24495
2.23024
2.23218
2.24294
2.24943
2.25632
2.82985
2.81039
2.79026
2.76901
2.74632
2.62134
2.5402
2.59283
2.50998
2.51745
2.46491
2.39835
2.32733
2.24797
2.21597
2.21557
2.23187
2.24413
2.25119
2.25714
2.83068
2.81305
2.79489
2.77563
2.75271
1.2046
1.00577
0.90298
0.918002
0.766644
0.76669
0.766584
1.85213
1.65657
1.33398
1.8115
1.90946
2.07618
2.17117
2.21856
2.83151
2.81576
2.79978
2.78312
2.76344
1.38599
0.945488
0.766504
0.767452
0.769453
0.76975
0.768434
0.766707
0.766414
1.21197
1.60884
1.83388
2.04475
2.16093
2.21432
2.83226
2.81825
2.8044
2.7907
2.77705
1.38385
0.766501
0.768893
0.777034
0.790708
0.786616
0.78315
0.772323
0.766939
1.01964
1.41945
1.94921
2.12543
2.20591
2.23564
2.83282
2.82016
2.80807
2.79705
2.78777
1.79727
0.767436
0.777021
0.78236
0.782244
0.782254
0.782379
0.784994
0.770559
0.766589
1.35148
2.097
2.20192
2.2434
2.25171
2.83313
2.82121
2.81012
2.80074
2.79531
0.766614
0.769428
0.790668
0.782218
0.782209
0.782224
0.782253
0.786322
0.774672
0.767089
2.00356
2.24493
2.26099
2.26917
2.26209
2.83313
2.82121
2.81012
2.80074
2.79697
0.766651
0.769711
0.786552
0.7822
0.782196
0.782211
0.782245
0.785893
0.775123
0.767241
2.21751
2.24493
2.26099
2.26917
2.26209
2.83282
2.82016
2.80807
2.79705
2.79233
0.76654
0.768386
0.783089
0.782297
0.782196
0.782213
0.782343
0.786719
0.773101
0.766745
1.62925
2.097
2.20192
2.2434
2.25171
2.83226
2.81825
2.8044
2.7907
2.78275
1.51992
0.766642
0.772278
0.78492
0.786251
0.785834
0.786711
0.781887
0.768293
0.766491
1.33403
1.94921
2.12543
2.20591
2.23564
2.83151
2.81576
2.79978
2.78312
2.76344
1.36908
0.766335
0.76685
0.77048
0.77462
0.77507
0.773058
0.768262
0.766421
1.11811
1.60884
1.83387
2.04475
2.16093
2.21432
2.83068
2.81305
2.79489
2.77563
2.7527
1.2046
0.997084
0.896555
0.766486
0.767
0.767159
0.766673
0.766442
1.50963
1.33399
1.81151
1.90946
2.07618
2.17117
2.21856
2.82985
2.81039
2.79026
2.76901
2.74632
2.62134
2.54023
2.20547
1.89041
2.39421
2.43498
2.38104
2.31213
2.24797
2.21597
2.21556
2.23187
2.24413
2.25119
2.25714
2.82909
2.80796
2.78599
2.76262
2.73721
2.70795
2.67293
2.63165
2.57896
2.51926
2.45435
2.38946
2.32812
2.27799
2.24495
2.23024
2.23218
2.24294
2.24943
2.25632
2.82847
2.80597
2.78247
2.75733
2.72974
2.69873
2.66278
2.6204
2.57098
2.51527
2.45601
2.39633
2.33982
2.29134
2.25558
2.23569
2.23237
2.24168
2.24781
2.25558
2.82803
2.80456
2.78001
2.75366
2.72473
2.69229
2.65534
2.61303
2.56508
2.5123
2.45648
2.40009
2.34628
2.299
2.26244
2.24027
2.23438
2.24229
2.24756
2.25554
2.8278
2.80384
2.77875
2.75181
2.72224
2.68921
2.65189
2.60967
2.56248
2.511
2.45666
2.40161
2.3487
2.30158
2.26434
2.24093
2.23375
2.24092
2.24606
2.25458
2.82775
2.80366
2.77844
2.7514
2.72176
2.68868
2.65133
2.6091
2.56191
2.51044
2.45614
2.40116
2.34838
2.30143
2.26439
2.24116
2.23411
2.24131
2.24641
2.25473
2.82798
2.80438
2.77971
2.75327
2.72428
2.69181
2.65486
2.61254
2.56459
2.51181
2.45601
2.39969
2.34601
2.29891
2.26257
2.24062
2.23486
2.24278
2.24798
2.25572
2.82842
2.8058
2.7822
2.75698
2.72935
2.69832
2.66239
2.62005
2.57066
2.5149
2.45565
2.39603
2.33963
2.29136
2.25588
2.23625
2.23308
2.24236
2.24836
2.25582
2.82905
2.8078
2.78574
2.76231
2.73688
2.70797
2.6735
2.63202
2.57925
2.51916
2.45417
2.38941
2.32805
2.27813
2.24551
2.23117
2.23323
2.24389
2.25017
2.25665
2.82981
2.81024
2.79004
2.76876
2.74602
2.64205
2.56985
2.6057
2.51838
2.51985
2.46553
2.39856
2.32727
2.24876
2.21737
2.21731
2.23343
2.24545
2.25217
2.25758
2.83065
2.81292
2.7947
2.77543
2.75262
1.21678
1.01366
0.904017
0.915591
1.84632
1.64441
1.32388
1.80539
1.91047
2.0778
2.17251
2.21925
2.83148
2.81564
2.7996
2.78297
2.76344
1.40405
0.948142
1.20304
1.60068
1.83109
2.04409
2.16116
2.21446
2.83222
2.81813
2.80424
2.79059
2.77697
1.37474
0.773662
0.773884
1.01476
1.40415
1.94294
2.12349
2.20567
2.23558
2.83279
2.82005
2.80794
2.79699
2.78773
1.78743
0.774795
0.775911
0.775924
0.775074
0.773695
1.3141
2.08268
2.19756
2.24234
2.25137
2.8331
2.82111
2.81
2.8007
2.79525
0.773622
0.775884
0.776351
0.776366
0.775922
0.774317
1.99623
2.24519
2.26247
2.27049
2.26275
2.8331
2.82111
2.81
2.8007
2.7969
0.77382
0.775866
0.776335
0.776355
0.775912
0.774624
2.22084
2.24519
2.26247
2.27049
2.26275
2.83279
2.82005
2.80793
2.79699
2.79228
0.774981
0.775856
0.775877
0.77554
0.773907
1.60175
2.08269
2.19756
2.24234
2.25137
2.83222
2.81813
2.80424
2.79059
2.78267
1.50815
0.773605
0.774229
0.774568
0.773878
1.32077
1.94294
2.12349
2.20567
2.23558
2.83148
2.81564
2.7996
2.78297
2.76344
1.38317
1.11147
1.60069
1.83109
2.04409
2.16116
2.21446
2.83065
2.81292
2.7947
2.77543
2.75262
1.21678
0.994137
0.895883
1.49711
1.32389
1.8054
1.91047
2.0778
2.17251
2.21925
2.82981
2.81024
2.79004
2.76876
2.74602
2.64205
2.56987
2.25508
1.85926
2.38837
2.43467
2.3825
2.31073
2.24876
2.21737
2.21731
2.23343
2.24545
2.25217
2.25758
2.82905
2.8078
2.78574
2.76231
2.73687
2.70796
2.67349
2.63202
2.57925
2.51916
2.45417
2.3894
2.32805
2.27813
2.24551
2.23117
2.23323
2.24389
2.25017
2.25665
2.82842
2.8058
2.7822
2.75698
2.72935
2.69832
2.66239
2.62005
2.57066
2.5149
2.45564
2.39603
2.33963
2.29136
2.25588
2.23625
2.23308
2.24236
2.24836
2.25582
2.82798
2.80438
2.77971
2.75327
2.72428
2.69181
2.65485
2.61254
2.56459
2.51181
2.45601
2.39969
2.34601
2.29891
2.26257
2.24062
2.23485
2.24278
2.24797
2.25572
2.82775
2.80366
2.77844
2.7514
2.72176
2.68868
2.65133
2.60909
2.56191
2.51044
2.45614
2.40116
2.34838
2.30142
2.26438
2.24116
2.23411
2.24131
2.24641
2.25473
2.82768
2.80341
2.77803
2.75085
2.7211
2.68793
2.65054
2.60829
2.56112
2.50969
2.45546
2.4006
2.34798
2.30124
2.26442
2.2414
2.23447
2.2417
2.24676
2.25486
2.82791
2.80414
2.77931
2.75274
2.72364
2.69111
2.65412
2.6118
2.56386
2.51111
2.45538
2.39917
2.34566
2.29878
2.26269
2.24096
2.23532
2.24326
2.24838
2.25588
2.82835
2.80556
2.78181
2.75646
2.72874
2.69765
2.66172
2.6194
2.57002
2.51428
2.45508
2.39559
2.33936
2.29135
2.25617
2.2368
2.23375
2.24301
2.24888
2.25604
2.82899
2.80758
2.78537
2.76183
2.7363
2.70754
2.67332
2.63172
2.57897
2.51867
2.45373
2.38915
2.32787
2.27826
2.24605
2.23206
2.23422
2.24479
2.25087
2.25695
2.82975
2.81003
2.78969
2.76831
2.74548
2.65526
2.58531
2.61261
2.51966
2.52039
2.46569
2.39847
2.32698
2.24948
2.21873
2.21888
2.23488
2.2467
2.25309
2.25799
2.83059
2.81271
2.79438
2.77506
2.75226
1.22324
1.01692
0.899904
0.911123
1.83403
1.62384
1.31334
1.7981
1.90775
2.07706
2.1726
2.21932
2.83142
2.81545
2.79931
2.78264
2.76317
1.41428
0.945077
1.18734
1.5904
1.82365
2.04044
2.1598
2.21384
2.83217
2.81795
2.80398
2.79032
2.77676
1.3448
0.773509
0.773545
1.00362
1.392
1.93272
2.11931
2.20431
2.23504
2.83274
2.81989
2.8077
2.79677
2.78756
1.75592
0.773835
0.774729
0.774747
0.77404
0.773616
1.27147
2.07048
2.19359
2.24132
2.25106
2.83305
2.82095
2.80978
2.80049
2.79508
0.773468
0.774703
0.774937
0.774956
0.774749
0.773692
1.97956
2.24582
2.264
2.27178
2.26345
2.83305
2.82095
2.80978
2.80049
2.79671
0.77347
0.774689
0.774923
0.774944
0.77474
0.773794
2.22146
2.24582
2.264
2.27178
2.26345
2.83274
2.81989
2.8077
2.79677
2.79211
0.773942
0.774686
0.774709
0.774227
0.773605
1.56007
2.07048
2.19359
2.24132
2.25106
2.83217
2.81795
2.80398
2.79032
2.78246
1.46968
0.773505
0.773602
0.773739
0.773578
1.30425
1.93271
2.11931
2.20431
2.23504
2.83142
2.81545
2.79931
2.78264
2.76317
1.38454
1.09804
1.5904
1.82364
2.04044
2.15979
2.21384
2.83059
2.81271
2.79438
2.77506
2.75226
1.22324
0.985161
0.892482
1.47232
1.31334
1.7981
1.90775
2.07706
2.1726
2.21931
2.82975
2.81003
2.78969
2.76831
2.74548
2.65526
2.58532
2.28102
1.79901
2.37288
2.43187
2.38322
2.30872
2.24948
2.21873
2.21888
2.23488
2.2467
2.25309
2.25799
2.82899
2.80758
2.78537
2.76183
2.7363
2.70754
2.67332
2.63172
2.57896
2.51867
2.45373
2.38915
2.32787
2.27826
2.24605
2.23205
2.23421
2.24479
2.25086
2.25695
2.82835
2.80556
2.78181
2.75646
2.72874
2.69765
2.66172
2.6194
2.57002
2.51428
2.45508
2.39559
2.33936
2.29135
2.25617
2.2368
2.23375
2.24301
2.24888
2.25604
2.82791
2.80414
2.77931
2.75274
2.72364
2.69111
2.65412
2.61179
2.56386
2.51111
2.45537
2.39917
2.34566
2.29878
2.26269
2.24095
2.23532
2.24326
2.24837
2.25588
2.82767
2.80341
2.77803
2.75085
2.72109
2.68793
2.65053
2.60829
2.56112
2.50969
2.45546
2.4006
2.34798
2.30123
2.26442
2.24139
2.23447
2.2417
2.24675
2.25486
2.82758
2.8031
2.77751
2.75015
2.72024
2.68697
2.64951
2.60725
2.56011
2.50875
2.45464
2.39994
2.34754
2.30103
2.26446
2.24165
2.23485
2.2421
2.2471
2.255
2.82782
2.80383
2.7788
2.75205
2.7228
2.69016
2.65312
2.61077
2.56287
2.5102
2.45459
2.39856
2.34526
2.29864
2.26282
2.24131
2.2358
2.24374
2.24877
2.25604
2.82826
2.80525
2.7813
2.75578
2.72792
2.69672
2.66074
2.61844
2.56908
2.51342
2.45435
2.39505
2.33905
2.29135
2.25648
2.23736
2.23443
2.24365
2.24939
2.25625
2.8289
2.80727
2.78486
2.76115
2.73547
2.70668
2.67247
2.63085
2.57817
2.5179
2.45309
2.38873
2.32768
2.27846
2.24664
2.23293
2.23518
2.24567
2.25153
2.25724
2.82966
2.80972
2.78919
2.76764
2.74465
2.65854
2.58739
2.61289
2.51936
2.52032
2.46532
2.39812
2.32673
2.24999
2.21986
2.2203
2.23625
2.24788
2.25396
2.25836
2.8305
2.81242
2.7939
2.77443
2.75148
1.22567
1.01792
0.899413
0.909203
1.83127
1.62047
1.31144
1.79657
1.9082
2.07801
2.17349
2.21974
2.83134
2.81516
2.79885
2.78204
2.76243
1.4165
0.944831
1.18417
1.58806
1.82362
2.04119
2.16063
2.21424
2.83209
2.81767
2.80354
2.78974
2.77615
1.34284
0.774802
0.774837
1.00178
1.38762
1.93394
2.1208
2.20551
2.2356
2.83266