/*--------------------------------*- C++ -*----------------------------------*\
  =========                 |
  \\      /  F ield         | OpenFOAM: The Open Source CFD Toolbox
   \\    /   O peration     | Website:  https://openfoam.org
    \\  /    A nd           | Version:  11
     \\/     M anipulation  |
\*---------------------------------------------------------------------------*/
FoamFile
{
    format      ascii;
    class       volScalarField;
    location    "0.0003";
    object      T;
}
// * * * * * * * * * * * * * * * * * * * * * * * * * * * * * * * * * * * * * //

dimensions      [0 0 0 1 0 0 0];

internalField   nonuniform List<scalar> 
21740
(
299.732
299.262
298.749
298.171
297.498
296.695
295.72
294.526
293.069
291.308
289.21
286.751
283.913
280.699
277.167
273.535
270.372
268.793
270.378
271.938
299.736
299.271
298.765
298.195
297.53
296.732
295.756
294.551
293.066
291.257
289.094
286.563
283.662
280.406
276.86
273.237
270.1
268.565
270.209
271.851
299.743
299.292
298.8
298.247
297.599
296.816
295.842
294.616
293.076
291.175
288.896
286.252
283.274
280.006
276.515
272.982
269.939
268.479
270.137
271.864
299.755
299.323
298.855
298.329
297.714
296.961
296.004
294.753
293.13
291.067
288.566
285.7
282.575
279.279
275.885
272.498
269.598
268.252
269.952
271.828
299.77
299.365
298.929
298.445
297.883
297.187
296.292
295.308
293.721
291.582
288.947
285.934
282.799
278.046
274.922
271.813
269.137
267.948
269.697
271.771
299.789
299.416
299.021
298.593
298.106
297.514
296.798
295.676
294.506
281.173
277.869
273.435
270.89
268.547
267.572
269.37
271.691
299.809
299.471
299.123
298.764
298.38
297.939
297.416
272.935
269.563
267.763
267.103
268.966
271.584
299.827
299.523
299.221
298.929
298.653
298.343
270.458
270.459
272.071
269.459
266.847
266.58
268.526
271.469
299.841
299.564
299.298
299.06
298.875
298.714
270.453
270.545
270.544
270.472
270.451
268.051
266.345
266.22
268.153
271.379
299.849
299.587
299.342
299.136
299.017
270.458
270.544
270.613
270.613
270.544
270.464
267.479
266.021
265.984
267.913
271.32
299.849
299.587
299.342
299.136
299.05
270.459
270.544
270.613
270.613
270.544
270.474
267.226
266.021
265.984
267.913
271.32
299.841
299.564
299.298
299.06
298.96
270.471
270.543
270.544
270.496
270.457
267.751
266.345
266.22
268.153
271.379
299.827
299.523
299.221
298.929
298.781
298.549
270.45
270.463
270.474
270.457
268.593
266.847
266.58
268.526
271.469
299.809
299.471
299.123
298.764
298.38
298.169
272.203
269.563
267.763
267.103
268.966
271.585
299.789
299.416
299.021
298.593
298.106
297.514
297.039
296.246
276.817
273.436
270.89
268.547
267.572
269.37
271.691
299.77
299.365
298.929
298.445
297.882
297.187
296.292
295.546
293.763
291.669
288.7
285.407
281.838
278.046
274.922
271.813
269.138
267.948
269.697
271.771
299.755
299.323
298.855
298.329
297.714
296.961
296.004
294.753
293.13
291.067
288.566
285.7
282.575
279.279
275.885
272.498
269.598
268.252
269.952
271.828
299.743
299.292
298.8
298.247
297.599
296.816
295.842
294.616
293.075
291.175
288.896
286.251
283.274
280.006
276.515
272.982
269.939
268.479
270.137
271.864
299.736
299.271
298.765
298.195
297.53
296.732
295.756
294.551
293.066
291.257
289.094
286.563
283.662
280.406
276.86
273.237
270.1
268.565
270.209
271.851
299.732
299.262
298.749
298.171
297.498
296.695
295.72
294.526
293.069
291.308
289.21
286.751
283.913
280.699
277.167
273.535
270.372
268.793
270.378
271.938
299.731
299.26
298.746
298.167
297.494
296.69
295.713
294.518
293.058
291.294
289.193
286.731
283.891
280.676
277.145
273.515
270.353
268.776
270.365
271.927
299.735
299.27
298.763
298.192
297.526
296.728
295.75
294.543
293.055
291.242
289.075
286.539
283.634
280.377
276.833
273.214
270.082
268.549
270.196
271.839
299.743
299.29
298.798
298.244
297.596
296.813
295.838
294.609
293.064
291.158
288.871
286.219
283.237
279.97
276.485
272.963
269.926
268.466
270.125
271.851
299.754
299.322
298.853
298.328
297.714
296.963
296.005
294.75
293.119
291.046
288.53
285.649
282.515
279.225
275.854
272.495
269.601
268.247
269.943
271.814
299.77
299.364
298.928
298.446
297.888
297.201
296.306
295.284
293.713
291.566
288.899
285.812
282.596
277.984
274.907
271.858
269.177
267.956
269.693
271.758
299.788
299.414
299.02
298.594
298.114
297.535
296.799
295.69
294.512
281.082
277.636
273.503
271.059
268.659
267.598
269.375
271.68
299.808
299.47
299.122
298.766
298.39
297.949
297.44
272.753
269.798
267.888
267.137
268.976
271.575
299.826
299.522
299.22
298.93
298.655
298.354
270.832
270.833
272.126
269.372
266.93
266.607
268.536
271.459
299.841
299.563
299.296
299.059
298.876
298.719
270.822
271.062
271.061
270.853
270.822
268.137
266.405
266.245
268.163
271.371
299.848
299.585
299.339
299.134
299.016
270.832
271.062
271.169
271.169
271.061
270.841
267.548
266.075
266.009
267.923
271.312
299.848
299.585
299.339
299.134
299.048
270.832
271.061
271.168
271.168
271.061
270.859
267.291
266.075
266.009
267.923
271.313
299.841
299.563
299.296
299.059
298.959
270.852
271.06
271.061
270.901
270.83
267.831
266.405
266.245
268.164
271.371
299.826
299.522
299.22
298.93
298.783
298.557
270.821
270.84
270.858
270.83
268.652
266.93
266.607
268.536
271.459
299.808
299.47
299.122
298.766
298.39
298.181
272.185
269.798
267.888
267.137
268.976
271.575
299.788
299.414
299.02
298.594
298.114
297.535
297.052
296.262
276.737
273.503
271.059
268.659
267.598
269.375
271.68
299.77
299.364
298.928
298.446
297.888
297.201
296.306
295.53
293.767
291.657
288.667
285.336
281.733
277.984
274.907
271.859
269.177
267.956
269.694
271.758
299.754
299.322
298.853
298.328
297.714
296.963
296.005
294.75
293.119
291.046
288.53
285.649
282.515
279.225
275.854
272.495
269.601
268.247
269.943
271.814
299.743
299.29
298.798
298.244
297.596
296.813
295.838
294.609
293.064
291.158
288.871
286.219
283.237
279.97
276.485
272.963
269.926
268.466
270.125
271.851
299.735
299.27
298.763
298.192
297.526
296.728
295.75
294.543
293.055
291.242
289.075
286.539
283.634
280.377
276.833
273.214
270.082
268.549
270.196
271.839
299.731
299.26
298.746
298.167
297.494
296.69
295.713
294.518
293.058
291.294
289.193
286.731
283.891
280.676
277.145
273.515
270.353
268.776
270.365
271.927
299.73
299.256
298.741
298.16
297.485
296.68
295.702
294.505
293.043
291.277
289.174
286.712
283.875
280.665
277.141
273.518
270.36
268.783
270.365
271.927
299.734
299.266
298.758
298.185
297.519
296.72
295.741
294.531
293.04
291.223
289.053
286.516
283.614
280.364
276.831
273.223
270.094
268.558
270.197
271.838
299.741
299.287
298.793
298.239
297.592
296.809
295.834
294.601
293.051
291.139
288.846
286.191
283.214
279.962
276.499
272.992
269.955
268.482
270.125
271.848
299.753
299.319
298.849
298.325
297.716
296.971
296.014
294.753
293.112
291.026
288.497
285.609
282.485
279.229
275.903
272.578
269.665
268.271
269.942
271.807
299.768
299.361
298.926
298.447
297.902
297.24
296.349
295.299
293.717
291.549
288.861
285.751
282.54
278.01
275.036
272.072
269.3
267.983
269.689
271.747
299.787
299.412
299.018
298.598
298.136
297.634
296.869
295.733
294.524
280.967
277.655
273.99
275.332
270.991
268.515
269.756
271.838
299.807
299.468
299.121
298.772
298.418
297.999
297.518
273.261
274.042
270.084
268.02
269.349
271.728
299.825
299.519
299.218
298.933
298.67
298.394
271.831
271.833
272.441
270.66
267.843
266.988
268.698
271.519
299.839
299.56
299.293
299.058
298.883
298.736
271.815
272.107
272.106
271.862
271.815
268.437
266.738
266.385
268.218
271.385
299.847
299.582
299.335
299.131
299.016
271.83
272.107
272.256
272.256
272.107
271.845
267.718
266.204
266.064
267.94
271.31
299.847
299.582
299.335
299.131
299.047
271.834
272.106
272.256
272.256
272.106
271.873
267.441
266.204
266.064
267.94
271.31
299.839
299.56
299.293
299.058
298.962
271.861
272.105
272.106
271.937
271.827
268.051
266.738
266.385
268.219
271.385
299.825
299.519
299.218
298.933
298.793
298.584
271.811
271.843
271.872
271.827
269.208
267.843
266.988
268.698
271.519
299.807
299.467
299.121
298.772
298.418
298.228
272.625
274.042
270.084
268.02
269.349
271.728
299.787
299.412
299.018
298.598
298.136
297.634
297.136
296.315
276.784
273.99
275.332
270.991
268.515
269.756
271.838
299.768
299.361
298.926
298.447
297.902
297.24
296.349
295.565
293.777
291.639
288.621
285.252
281.649
278.01
275.036
272.072
269.3
267.983
269.689
271.747
299.753
299.319
298.849
298.325
297.716
296.971
296.014
294.753
293.112
291.026
288.497
285.609
282.485
279.229
275.903
272.578
269.665
268.271
269.942
271.807
299.741
299.287
298.793
298.239
297.592
296.809
295.834
294.601
293.051
291.139
288.846
286.191
283.214
279.962
276.499
272.993
269.955
268.482
270.125
271.848
299.734
299.266
298.758
298.185
297.519
296.719
295.741
294.531
293.039
291.223
289.053
286.516
283.614
280.364
276.831
273.223
270.094
268.558
270.197
271.838
299.73
299.256
298.741
298.16
297.485
296.68
295.702
294.505
293.043
291.276
289.174
286.712
283.875
280.665
277.141
273.518
270.36
268.783
270.365
271.927
299.728
299.251
298.733
298.15
297.473
296.665
295.684
294.484
293.018
291.248
289.143
286.679
283.845
280.641
277.125
273.51
270.358
268.781
270.358
271.922
299.732
299.261
298.75
298.175
297.507
296.707
295.726
294.512
293.015
291.193
289.017
286.477
283.577
280.335
276.814
273.219
270.097
268.56
270.191
271.831
299.739
299.282
298.786
298.231
297.584
296.804
295.827
294.589
293.03
291.107
288.804
286.143
283.169
279.935
276.496
273.013
269.98
268.492
270.119
271.838
299.751
299.314
298.843
298.32
297.717
297.082
296.121
294.801
293.166
291.007
288.445
285.537
282.419
279.203
275.924
272.662
269.737
268.292
269.935
271.794
299.766
299.357
298.921
298.448
297.922
304.541
301.17
296.428
293.816
291.535
288.802
285.645
282.433
278.071
275.359
272.512
269.532
268.031
269.687
271.733
299.785
299.408
299.015
298.603
298.194
571.512
370.327
300.005
295.16
280.792
277.792
393.106
295.09
301.558
284.138
277.367
275.56
299.805
299.464
299.119
298.78
298.472
298.25
297.854
274.733
319.127
298.537
281.377
275.595
274.651
299.823
299.515
299.214
298.937
298.696
298.583
273.192
273.194
290.977
304.419
286.046
274.603
272.036
272.987
299.837
299.555
299.288
299.057
298.896
298.841
273.174
449.477
449.412
273.278
273.163
287.624
276.885
270.256
269.82
272.054
299.845
299.577
299.329
299.126
299.016
273.192
449.456
472.352
472.328
449.45
273.236
271.855
267.858
266.721
268.206
271.408
299.845
299.577
299.329
299.126
299.044
273.195
449.472
472.323
472.321
449.431
273.295
268.391
267.858
266.722
268.206
271.408
299.837
299.555
299.288
299.057
298.967
273.277
449.42
449.463
273.422
273.18
279.483
276.885
270.256
269.821
272.054
299.823
299.515
299.214
298.937
298.814
298.73
273.16
273.233
273.294
273.179
292.823
286.046
274.604
272.036
272.987
299.805
299.464
299.119
298.78
298.472
298.422
299.261
319.126
298.538
281.378
275.595
274.651
299.785
299.408
299.015
298.603
298.194
571.512
352.376
302.327
277.157
393.106
295.088
301.558
284.138
277.368
275.561
299.766
299.357
298.921
298.448
297.922
304.541
301.17
296.936
294.002
291.639
288.554
285.082
281.433
278.071
275.359
272.512
269.532
268.031
269.687
271.733
299.751
299.314
298.843
298.32
297.717
297.082
296.121
294.801
293.166
291.007
288.445
285.537
282.419
279.204
275.924
272.662
269.737
268.292
269.935
271.794
299.739
299.282
298.786
298.231
297.584
296.804
295.827
294.589
293.03
291.107
288.804
286.143
283.169
279.935
276.496
273.013
269.98
268.492
270.119
271.838
299.732
299.261
298.75
298.175
297.507
296.707
295.726
294.512
293.015
291.193
289.017
286.477
283.577
280.335
276.814
273.219
270.097
268.56
270.191
271.831
299.728
299.251
298.733
298.15
297.473
296.665
295.684
294.484
293.018
291.248
289.143
286.679
283.844
280.641
277.125
273.51
270.358
268.781
270.358
271.922
299.725
299.245
298.722
298.136
297.456
296.645
295.661
294.457
292.987
291.213
289.103
286.639
283.807
280.61
277.103
273.498
270.352
268.777
270.35
271.917
299.729
299.255
298.74
298.162
297.492
296.689
295.705
294.487
292.984
291.155
288.974
286.431
283.533
280.301
276.793
273.212
270.097
268.559
270.183
271.824
299.736
299.276
298.777
298.219
297.572
296.792
295.815
294.57
293.002
291.068
288.754
286.087
283.119
279.907
276.494
273.033
270.002
268.5
270.111
271.828
299.748
299.308
298.835
298.312
297.714
297.117
296.268
294.898
293.292
290.997
288.388
285.46
282.356
279.187
275.961
272.751
269.802
268.312
269.928
271.78
299.764
299.351
298.915
298.447
297.939
307.796
310.462
300.964
304.838
293.954
289.108
285.589
282.301
278.384
275.7
272.847
269.694
268.067
269.683
271.717
299.782
299.403
299.011
298.608
298.247
667.651
768.641
829.616
791.197
347.446
375.838
447.625
326.713
319.906
292.071
280.908
277.162
299.802
299.459
299.115
298.789
298.551
572.969
827.605
483
370.386
334.957
297.444
282.824
277.953
299.82
299.51
299.209
298.941
298.731
608.074
501.413
500.145
579.668
386.023
315.698
286.601
277.171
275.221
299.834
299.549
299.28
299.054
298.913
488.946
494.778
792.247
792.221
529.304
499.598
434.326
294.605
276.883
272.528
273.188
299.842
299.57
299.32
299.118
299.016
501.66
792.236
799.395
799.372
792.194
527.082
308.77
270.745
267.851
268.662
271.591
299.842
299.57
299.32
299.118
299.04
500.204
792.287
799.41
799.396
792.249
538.515
275.189
270.745
267.851
268.662
271.591
299.834
299.549
299.28
299.054
298.973
529.653
792.244
792.21
575.956
500.901
388.429
294.605
276.884
272.528
273.188
299.82
299.51
299.209
298.941
298.842
571.171
498.461
526.94
538.24
501.453
418.503
315.699
286.601
277.172
275.222
299.802
299.459
299.115
298.789
298.551
589.172
523.38
370.383
334.958
297.445
282.824
277.954
299.782
299.403
299.011
298.608
298.247
667.649
792.119
851.264
400.99
447.625
326.711
319.906
292.071
280.908
277.162
299.764
299.351
298.915
298.447
297.939
307.796
310.459
344.125
424.988
311.285
291.887
285.429
281.72
278.384
275.7
272.847
269.694
268.067
269.683
271.717
299.748
299.308
298.835
298.312
297.714
297.117
296.268
294.898
293.292
290.997
288.388
285.46
282.356
279.187
275.961
272.751
269.802
268.312
269.928
271.78
299.736
299.276
298.777
298.219
297.572
296.792
295.815
294.57
293.002
291.068
288.754
286.087
283.119
279.907
276.494
273.033
270.002
268.5
270.112
271.828
299.729
299.255
298.74
298.162
297.492
296.689
295.705
294.487
292.984
291.155
288.974
286.431
283.533
280.301
276.793
273.212
270.097
268.559
270.183
271.824
299.725
299.245
298.722
298.136
297.456
296.645
295.661
294.457
292.987
291.212
289.103
286.639
283.807
280.61
277.103
273.498
270.352
268.777
270.35
271.917
299.722
299.236
298.709
298.118
297.434
296.62
295.632
294.424
292.949
291.17
289.058
286.593
283.764
280.574
277.077
273.482
270.343
268.771
270.34
271.911
299.725
299.247
298.727
298.145
297.471
296.665
295.678
294.454
292.946
291.111
288.924
286.379
283.485
280.263
276.769
273.2
270.094
268.557
270.174
271.816
299.733
299.268
298.764
298.204
297.555
296.774
295.794
294.542
292.965
291.02
288.698
286.028
283.069
279.877
276.489
273.046
270.016
268.505
270.103
271.818
299.745
299.3
298.824
298.3
297.704
297.113
296.303
294.912
293.287
290.953
288.32
285.385
282.302
279.181
276.003
272.817
269.849
268.329
269.92
271.767
299.76
299.344
298.905
298.439
297.943
308.482
313.296
302.275
305.964
294.292
289.104
285.505
282.235
278.458
275.863
273.012
269.789
268.095
269.676
271.701
299.779
299.396
299.002
298.607
298.274
678.026
804.291
889.103
853.484
349.341
383.042
457.501
334.595
320.955
292.214
280.875
277.101
299.799
299.452
299.107
298.79
298.589
594.145
866.074
499.843
382.706
337.67
298.241
283.072
278.018
299.817
299.502
299.199
298.938
298.76
632.695
798.691
800.64
594.076
420.699
317.811
287.278
277.402
275.297
299.831
299.54
299.268
299.044
298.923
490.444
798.905
883.879
883.87
809.4
795.164
471.978
295.72
277.212
272.628
273.222
299.838
299.561
299.307
299.104
299.01
798.733
883.873
887.768
887.752
883.834
808.745
314.434
271.088
267.966
268.691
271.605
299.838
299.561
299.307
299.104
299.031
800.69
883.898
887.784
887.783
883.862
812.569
276.576
271.088
267.966
268.691
271.605
299.831
299.54
299.268
299.044
298.973
809.446
883.835
883.842
819.607
796.695
403.815
295.721
277.212
272.628
273.222
299.817
299.502
299.199
298.938
298.862
585.412
795.201
808.664
812.563
796.474
456.399
317.812
287.279
277.402
275.298
299.799
299.452
299.107
298.79
298.589
611.727
541.584
382.704
337.67
298.242
283.073
278.018
299.779
299.396
299.002
298.607
298.274
678.021
826.38
896.928
412.704
457.5
334.593
320.955
292.215
280.876
277.101
299.76
299.344
298.905
298.439
297.943
308.482
313.293
353.712
437.804
313.771
292.376
285.44
281.687
278.458
275.863
273.012
269.789
268.096
269.676
271.702
299.745
299.3
298.824
298.3
297.704
297.113
296.303
294.912
293.287
290.953
288.32
285.384
282.302
279.181
276.003
272.817
269.85
268.329
269.92
271.767
299.733
299.268
298.764
298.204
297.555
296.774
295.793
294.542
292.965
291.02
288.698
286.028
283.069
279.877
276.489
273.046
270.016
268.505
270.103
271.818
299.725
299.246
298.727
298.145
297.471
296.665
295.678
294.454
292.946
291.111
288.924
286.379
283.485
280.262
276.769
273.2
270.094
268.557
270.174
271.816
299.722
299.236
298.709
298.118
297.434
296.62
295.632
294.423
292.949
291.17
289.058
286.593
283.764
280.574
277.077
273.481
270.343
268.771
270.34
271.911
299.717
299.227
298.694
298.098
297.409
296.59
295.598
294.384
292.905
291.122
289.007
286.542
283.717
280.534
277.046
273.461
270.331
268.763
270.329
271.906
299.721
299.237
298.712
298.125
297.447
296.636
295.644
294.416
292.901
291.061
288.87
286.324
283.434
280.221
276.74
273.183
270.085
268.551
270.163
271.81
299.729
299.258
298.749
298.184
297.532
296.748
295.764
294.506
292.92
290.967
288.638
285.967
283.017
279.844
276.476
273.047
270.021
268.506
270.093
271.809
299.74
299.29
298.809
298.282
297.685
297.104
296.326
294.916
293.279
290.904
288.247
285.308
282.248
279.164
276.025
272.854
269.879
268.34
269.912
271.756
299.756
299.334
298.892
298.425
297.933
309.486
315.462
303.201
306.283
294.419
289.054
285.408
282.159
278.49
275.967
273.107
269.853
268.12
269.67
271.688
299.775
299.387
298.99
298.596
298.275
678.524
804.921
886.007
851.665
346.623
377.582
453.835
334.876
318.787
291.016
280.256
276.781
299.795
299.442
299.095
298.78
298.594
594.47
865.156
495.131
382.045
333.866
296.265
282.096
277.538
299.813
299.492
299.185
298.924
298.762
617.264
885.916
892.536
590.455
428.767
313.738
285.483
276.583
274.924
299.826
299.53
299.252
299.025
298.914
477.78
891.628
926.616
926.609
901.667
885.455
467.294
291.683
275.658
271.969
272.942
299.834
299.55
299.289
299.083
298.993
885.953
926.616
929.155
929.141
926.572
894.588
310.319
270.489
267.723
268.574
271.563
299.834
299.55
299.289
299.083
299.013
892.663
926.614
929.16
929.164
926.59
899.976
276.062
270.489
267.723
268.574
271.563
299.826
299.53
299.252
299.025
298.959
901.663
926.556
926.567
906.452
883.152
391.583
291.683
275.658
271.969
272.942
299.813
299.492
299.185
298.924
298.859
567.659
885.524
894.646
900.007
883.145
460.957
313.739
285.483
276.584
274.924
299.795
299.442
299.095
298.78
298.594
608.848
537.647
382.044
333.866
296.265
282.096
277.539
299.775
299.387
298.99
298.596
298.275
678.52
821.31
895.971
406.551
453.834
334.874
318.787
291.017
280.256
276.781
299.756
299.334
298.892
298.425
297.933
309.486
315.459
358.4
424.951
312.257
292.119
285.246
281.546
278.49
275.967
273.107
269.853
268.12
269.67
271.688
299.74
299.29
298.809
298.282
297.685
297.104
296.326
294.916
293.279
290.904
288.247
285.307
282.248
279.164
276.025
272.854
269.879
268.34
269.912
271.756
299.729
299.258
298.749
298.184
297.532
296.748
295.764
294.506
292.92
290.967
288.638
285.967
283.017
279.844
276.476
273.047
270.021
268.506
270.093
271.809
299.721
299.237
298.712
298.125
297.447
296.636
295.644
294.416
292.901
291.06
288.87
286.324
283.434
280.221
276.74
273.183
270.085
268.551
270.163
271.81
299.717
299.227
298.694
298.098
297.409
296.59
295.598
294.384
292.905
291.122
289.007
286.542
283.717
280.534
277.046
273.461
270.33
268.763
270.329
271.906
299.713
299.215
298.676
298.074
297.379
296.555
295.558
294.34
292.856
291.069
288.952
286.487
283.665
280.489
277.01
273.435
270.314
268.752
270.318
271.901
299.716
299.225
298.694
298.101
297.417
296.602
295.605
294.372
292.852
291.006
288.812
286.265
283.379
280.174
276.705
273.159
270.071
268.542
270.152
271.803
299.724
299.246
298.731
298.161
297.504
296.716
295.727
294.463
292.871
290.91
288.576
285.905
282.961
279.802
276.45
273.034
270.016
268.502
270.082
271.801
299.735
299.279
298.792
298.26
297.66
297.061
296.271
294.864
293.209
290.838
288.175
285.235
282.188
279.129
276.018
272.861
269.888
268.344
269.901
271.745
299.751
299.323
298.875
298.405
297.911
309.017
314.827
303.14
305.354
294.124
288.939
285.304
282.076
278.48
276
273.14
269.882
268.133
269.661
271.674
299.77
299.375
298.974
298.578
298.258
675.109
800.045
877.278
845.226
972.284
972.24
972.341
344.118
371.752
450.961
334.403
317.213
290.183
279.826
276.557
299.79
299.43
299.078
298.762
298.579
590.604
857.099
972.409
971.189
968.552
968.185
969.881
972.151
972.507
488.65
380.802
331.314
294.98
281.461
277.222
299.807
299.48
299.168
298.904
298.748
595.679
972.41
969.274
959.014
942.317
947.016
951.492
964.859
971.832
583.642
431.136
311.095
284.343
276.062
274.679
299.821
299.517
299.234
299.003
298.894
462.19
971.198
959.021
953.369
952.845
952.836
953.357
949.204
967.118
972.31
453.989
289.38
274.791
271.598
272.775
299.828
299.538
299.271
299.059
298.97
972.298
968.562
942.343
952.857
952.67
952.661
952.836
947.066
961.803
971.702
305.097
270.128
267.588
268.507
271.527
299.828
299.538
299.271
299.059
298.989
972.258
968.198
947.054
952.858
952.671
952.665
952.835
947.34
961.23
971.513
275.21
270.128
267.588
268.507
271.527
299.821
299.517
299.234
299.003
298.937
972.359
969.894
951.514
953.393
952.859
952.85
953.366
946.852
963.804
972.121
376.664
289.38
274.791
271.598
272.775
299.807
299.48
299.168
298.904
298.842
544.522
972.18
964.854
949.234
947.096
947.373
946.842
953.022
970.025
972.402
459.588
311.096
284.343
276.062
274.679
299.79
299.43
299.078
298.762
298.579
600.039
972.541
971.871
967.145
961.803
961.248
963.823
970.045
972.468
530.852
380.8
331.314
294.98
281.461
277.222
299.77
299.375
298.974
298.578
298.258
675.106
809.075
888.948
972.356
971.741
971.554
972.162
972.425
398.784
450.959
334.401
317.213
290.183
279.826
276.557
299.751
299.323
298.875
298.404
297.911
309.016
314.822
358.833
407.956
309.81
291.616
285.013
281.366
278.479
276
273.14
269.882
268.133
269.661
271.674
299.735
299.279
298.792
298.26
297.66
297.06
296.27
294.864
293.209
290.838
288.175
285.234
282.188
279.129
276.018
272.861
269.888
268.344
269.901
271.745
299.724
299.246
298.731
298.161
297.504
296.716
295.727
294.463
292.87
290.91
288.576
285.905
282.961
279.802
276.45
273.034
270.016
268.502
270.082
271.801
299.716
299.225
298.694
298.101
297.417
296.602
295.605
294.372
292.852
291.006
288.812
286.265
283.379
280.174
276.705
273.159
270.071
268.542
270.152
271.803
299.713
299.215
298.676
298.074
297.379
296.555
295.558
294.34
292.856
291.069
288.952
286.487
283.665
280.489
277.01
273.434
270.314
268.752
270.318
271.901
299.707
299.202
298.655
298.046
297.345
296.515
295.513
294.29
292.803
291.013
288.893
286.429
283.61
280.439
276.97
273.404
270.293
268.739
270.305
271.896
299.711
299.212
298.673
298.073
297.383
296.563
295.561
294.323
292.798
290.948
288.751
286.204
283.32
280.123
276.664
273.13
270.051
268.53
270.139
271.798
299.718
299.233
298.711
298.133
297.471
296.678
295.684
294.416
292.818
290.853
288.514
285.841
282.9
279.75
276.411
273.008
270.001
268.493
270.069
271.793
299.73
299.265
298.771
298.233
297.629
296.985
296.137
294.762
293.1
290.765
288.112
285.171
282.127
279.082
275.985
272.841
269.88
268.339
269.889
271.734
299.745
299.309
298.854
298.379
297.883
306.489
311.072
301.565
304.315
293.816
288.838
285.242
282.02
278.437
275.963
273.118
269.878
268.133
269.648
271.659
299.764
299.362
298.954
298.554
298.233
668.326
793.846
876.062
846.921
344.948
374.721
455.005
335.962
317.365
290.192
279.795
276.521
299.784
299.417
299.058
298.739
298.554
582.965
854.546
493.139
383.431
332.306
295.384
281.612
277.266
299.802
299.467
299.149
298.882
298.727
599.537
967.731
968.555
587.442
436.929
312.611
284.948
276.3
274.758
299.815
299.504
299.215
298.982
298.873
464.668
967.01
967.704
967.7
967.124
967.385
468.242
291.852
275.693
271.948
272.895
299.823
299.524
299.252
299.038
298.947
967.748
967.71
967.026
967.024
967.709
968.133
306.908
270.545
267.764
268.572
271.526
299.823
299.524
299.252
299.038
298.966
968.581
967.717
967.033
967.026
967.709
967.732
275.399
270.545
267.764
268.572
271.526
299.815
299.504
299.215
298.982
298.915
967.166
967.733
967.723
966.83
968.582
384.087
291.852
275.693
271.948
272.895
299.802
299.467
299.149
298.882
298.82
548.657
967.417
968.17
967.756
968.591
465.441
312.611
284.948
276.3
274.758
299.784
299.417
299.058
298.739
298.554
593.859
535.081
383.429
332.306
295.385
281.612
277.266
299.764
299.362
298.954
298.554
298.233
668.324
811.404
889.456
402.303
455.003
335.96
317.365
290.192
279.795
276.521
299.745
299.309
298.854
298.379
297.883
306.489
311.07
350.826
414.713
310.477
291.635
285.005
281.38
278.437
275.963
273.118
269.878
268.133
269.648
271.659
299.73
299.265
298.771
298.233
297.629
296.984
296.137
294.762
293.1
290.765
288.112
285.171
282.127
279.082
275.985
272.841
269.88
268.339
269.889
271.734
299.718
299.233
298.711
298.133
297.471
296.678
295.684
294.415
292.818
290.853
288.514
285.841
282.9
279.75
276.411
273.008
270.001
268.493
270.069
271.793
299.711
299.212
298.673
298.073
297.383
296.563
295.561
294.323
292.798
290.948
288.751
286.204
283.32
280.123
276.664
273.13
270.051
268.53
270.139
271.798
299.707
299.202
298.655
298.046
297.345
296.515
295.513
294.29
292.803
291.012
288.893
286.429
283.61
280.439
276.97
273.404
270.293
268.739
270.305
271.896
299.701
299.187
298.632
298.015
297.306
296.471
295.463
294.236
292.744
290.951
288.831
286.367
283.551
280.387
276.926
273.37
270.269
268.724
270.292
271.892
299.705
299.197
298.65
298.042
297.345
296.518
295.511
294.268
292.739
290.887
288.687
286.14
283.26
280.07
276.62
273.096
270.029
268.516
270.126
271.793
299.712
299.218
298.687
298.102
297.433
296.634
295.635
294.362
292.761
290.792
288.45
285.776
282.838
279.695
276.367
272.976
269.981
268.481
270.056
271.787
299.723
299.25
298.747
298.202
297.591
296.917
296.04
294.682
293.018
290.7
288.05
285.109
282.065
279.029
275.942
272.81
269.863
268.33
269.875
271.724
299.739
299.294
298.83
298.348
297.847
304.824
309.056
300.656
304.118
293.706
288.772
285.19
281.971
278.391
275.914
273.081
269.862
268.128
269.635
271.646
299.757
299.346
298.929
298.523
298.199
664.636
791.191
879.605
850.539
346.916
379.756
459.192
337.673
318.105
290.509
279.916
276.56
299.777
299.401
299.034
298.709
298.521
578.642
856.971
500.517
386.473
334.105
296.193
281.958
277.403
299.795
299.451
299.125
298.854
298.699
612.727
975.969
976.009
594.657
441.611
314.714
285.823
276.665
274.893
299.809
299.488
299.192
298.954
298.846
472.888
975.452
976.169
976.172
975.433
975.787
485.186
293.996
276.523
272.282
273.006
299.816
299.509
299.229
299.011
298.92
975.974
976.165
975.837
975.843
976.187
975.841
310.096
270.858
267.913
268.633
271.519
299.816
299.509
299.229
299.011
298.939
976.032
976.175
975.846
975.85
976.192
975.79
275.825
270.858
267.913
268.633
271.519
299.809
299.488
299.192
298.954
298.889
975.468
976.201
976.198
975.298
975.909
395.26
293.995
276.523
272.282
273.006
299.795
299.451
299.125
298.854
298.793
562.853
975.835
975.875
975.813
975.922
472.385
314.714
285.824
276.665
274.893
299.777
299.401
299.034
298.709
298.521
593.154
542.532
386.473
334.105
296.194
281.958
277.403
299.757
299.346
298.929
298.523
298.199
664.634
818.555
892.428
409.303
459.19
337.671
318.105
290.509
279.916
276.56
299.739
299.294
298.83
298.348
297.847
304.824
309.055
346.701
428.565
312.375
291.92
285.065
281.41
278.391
275.914
273.081
269.862
268.128
269.635
271.646
299.723
299.25
298.747
298.202
297.591
296.917
296.04
294.682
293.018
290.7
288.05
285.109
282.065
279.029
275.942
272.81
269.863
268.33
269.875
271.724
299.712
299.218
298.687
298.102
297.433
296.634
295.635
294.362
292.761
290.792
288.45
285.776
282.837
279.695
276.367
272.976
269.981
268.481
270.056
271.787
299.705
299.197
298.649
298.042
297.345
296.518
295.511
294.268
292.739
290.886
288.687
286.14
283.26
280.069
276.62
273.096
270.029
268.516
270.126
271.793
299.701
299.187
298.632
298.015
297.306
296.47
295.463
294.235
292.744
290.951
288.831
286.367
283.551
280.387
276.926
273.37
270.269
268.724
270.292
271.892
299.694
299.171
298.606
297.98
297.263
296.42
295.406
294.175
292.68
290.886
288.765
286.303
283.492
280.334
276.882
273.336
270.245
268.709
270.278
271.889
299.698
299.18
298.623
298.006
297.301
296.467
295.454
294.207
292.675
290.82
288.62
286.075
283.199
280.016
276.575
273.062
270.006
268.502
270.113
271.789
299.705
299.2
298.659
298.065
297.389
296.583
295.578
294.301
292.696
290.725
288.382
285.71
282.776
279.641
276.323
272.943
269.959
268.468
270.043
271.781
299.716
299.232
298.719
298.165
297.547
296.855
295.968
294.614
292.945
290.63
287.981
285.042
282.004
278.977
275.9
272.779
269.844
268.319
269.862
271.717
299.731
299.275
298.801
298.31
297.802
304.274
308.619
300.466
304.023
293.592
288.696
285.12
281.91
278.349
275.876
273.048
269.846
268.121
269.623
271.636
299.749
299.327
298.9
298.485
298.155
662.973
789.999
879.56
851.912
347.282
380.603
460.223
338.248
318.277
290.569
279.924
276.552
299.769
299.382
299.005
298.672
298.479
577.48
856.724
502.375
387.479
334.453
296.332
282.002
277.408
299.787
299.432
299.096
298.817
298.661
613.351
981.285
981.287
596.398
443.615
314.881
285.899
276.688
274.887
299.801
299.469
299.163
298.918
298.809
472.489
981.155
981.824
981.839
981.125
981.28
487.892
293.95
276.534
272.285
272.989
299.808
299.49
299.2
298.975
298.883
981.276
981.793
981.659
981.682
981.869
981.217
309.505
270.814
267.915
268.634
271.498
299.808
299.49
299.2