/*--------------------------------*- C++ -*----------------------------------*\
  =========                 |
  \\      /  F ield         | OpenFOAM: The Open Source CFD Toolbox
   \\    /   O peration     | Website:  https://openfoam.org
    \\  /    A nd           | Version:  11
     \\/     M anipulation  |
\*---------------------------------------------------------------------------*/
FoamFile
{
    format      ascii;
    class       volVectorField;
    location    "0.0003";
    object      U;
}
// * * * * * * * * * * * * * * * * * * * * * * * * * * * * * * * * * * * * * //

dimensions      [0 1 -1 0 0 0 0];

internalField   nonuniform List<vector> 
21740
(
(16.0359 -0.0504695 0.00704743)
(16.7385 -0.161636 0.0227647)
(17.9969 -0.283355 0.0376172)
(19.9091 -0.412063 0.050616)
(22.5358 -0.538548 0.0611966)
(25.93 -0.639222 0.0694163)
(30.0883 -0.671386 0.0764867)
(34.9167 -0.576652 0.0848083)
(40.2055 -0.3113 0.0977449)
(45.6246 0.14088 0.114219)
(50.841 0.727747 0.133236)
(55.5776 1.34233 0.150719)
(59.6535 1.84784 0.160746)
(62.9846 2.1311 0.156791)
(65.494 2.14065 0.135851)
(67.0037 1.9178 0.101881)
(67.2423 1.56417 0.0650677)
(66.9841 1.17493 0.0362497)
(65.1237 0.809108 0.0207461)
(67.2194 0.461983 0.0134675)
(15.8119 -0.15189 0.00732773)
(16.5029 -0.487545 0.0237379)
(17.7481 -0.857795 0.0391429)
(19.6572 -1.2557 0.0522264)
(22.3145 -1.65847 0.0616141)
(25.8063 -1.99921 0.0668733)
(30.1613 -2.14678 0.0708942)
(35.2908 -1.90532 0.0778547)
(40.9554 -1.10863 0.0912664)
(46.7793 0.259097 0.114334)
(52.295 2.08211 0.144348)
(57.1518 4.00289 0.174337)
(61.1361 5.57244 0.19402)
(64.2196 6.43186 0.191702)
(66.4478 6.41223 0.161057)
(67.7512 5.69947 0.10896)
(67.8791 4.63508 0.0560092)
(67.5446 3.51722 0.0215461)
(65.5636 2.48674 0.0091427)
(67.4385 1.44377 0.00719476)
(15.3594 -0.253422 0.00788587)
(16.0217 -0.817871 0.0258205)
(17.2282 -1.4528 0.0424809)
(19.1101 -2.16041 0.0556764)
(21.8003 -2.92149 0.0619055)
(25.4637 -3.64006 0.0587078)
(30.2082 -4.08544 0.0528523)
(35.998 -3.82367 0.0540262)
(42.4384 -2.53265 0.0691711)
(48.9066 -0.0449418 0.105266)
(54.7179 3.39081 0.158692)
(59.2666 7.01374 0.217617)
(62.3591 9.88322 0.264149)
(64.2089 11.4345 0.272273)
(65.2943 11.218 0.221488)
(65.8712 9.73492 0.124609)
(65.744 7.75313 0.0323574)
(65.4801 5.83347 -0.0127862)
(63.7084 4.146 -0.0163512)
(65.7697 2.41673 -0.00660202)
(14.6782 -0.351509 0.00887219)
(15.2861 -1.14284 0.0295096)
(16.4065 -2.05699 0.0490052)
(18.1959 -3.12695 0.0635938)
(20.8566 -4.36823 0.0648493)
(24.7037 -5.68999 0.0423941)
(29.9767 -6.79484 0.0153614)
(36.8787 -6.33368 -0.000779651)
(44.7972 -4.92521 0.0181566)
(52.684 -0.906544 0.0775613)
(59.2197 4.97062 0.168405)
(63.3402 11.2788 0.282956)
(65.0359 15.9442 0.396254)
(64.8052 17.9299 0.443399)
(63.9745 17.0395 0.356461)
(63.4791 14.2372 0.154462)
(63.1146 10.9166 -0.0236175)
(63.0566 8.0092 -0.0819962)
(61.5646 5.621 -0.0632787)
(63.8164 3.2542 -0.03157)
(13.781 -0.437009 0.0103107)
(14.297 -1.4346 0.0351512)
(15.2548 -2.6261 0.0600933)
(16.8256 -4.10556 0.081381)
(19.2765 -5.97655 0.0838639)
(23.1469 -8.2977 0.0328396)
(28.544 -9.8951 -0.0400785)
(34.6015 -14.0601 -0.0457146)
(43.7853 -11.6108 -0.0302186)
(54.7113 -7.58047 0.0569087)
(62.4288 0.514907 0.146861)
(66.1286 9.93282 0.30232)
(64.8567 16.1046 0.410501)
(63.0827 26.6139 0.80648)
(60.8628 23.8442 0.654639)
(59.3756 18.8346 0.230299)
(59.0397 13.8368 -0.108515)
(59.6002 9.8255 -0.175142)
(58.6612 6.79334 -0.123233)
(61.2817 3.90691 -0.0651843)
(12.7067 -0.494375 0.0122291)
(13.0816 -1.6411 0.0427882)
(13.7669 -3.06485 0.0780696)
(14.911 -4.96207 0.122525)
(16.813 -7.67375 0.175472)
(19.9271 -11.017 0.187987)
(25.3017 -16.0304 -0.0279865)
(33.7809 -20.461 0.0763487)
(33.5793 -13.2824 -0.111897)
(69.8802 24.3441 0.455651)
(61.7655 33.619 0.805278)
(54.8531 33.3707 1.01137)
(52.4745 23.6874 0.170674)
(53.2766 16.3382 -0.416197)
(55.0662 11.2851 -0.440511)
(55.072 7.66426 -0.277124)
(58.3256 4.36591 -0.142539)
(11.537 -0.502313 0.0133383)
(11.7157 -1.68356 0.0466789)
(11.9916 -3.19177 0.0854336)
(12.4174 -5.27029 0.135215)
(13.2538 -8.31248 0.191286)
(15.69 -14.3736 0.0866971)
(15.3796 -14.7409 0.0792182)
(46.3075 37.7086 1.08803)
(42.8211 27.9238 -0.286978)
(45.8745 17.4712 -0.714099)
(49.6481 11.5406 -0.608708)
(50.8292 7.84035 -0.381756)
(54.9788 4.43219 -0.192128)
(10.4158 -0.44258 0.0137998)
(10.3713 -1.49692 0.0470811)
(10.1642 -2.88934 0.0834529)
(9.86474 -4.90128 0.126827)
(10.6253 -9.55408 0.0637583)
(11.6936 -13.0939 0.0447409)
(0.00972659 -0.0704604 -1.29248)
(0.00616535 -0.122112 -1.30294)
(20.6126 30.0462 0.147905)
(30.1418 26.6398 0.100287)
(38.3048 17.6196 -0.833652)
(43.7885 10.7138 -0.644887)
(46.5141 7.15487 -0.418261)
(51.5932 4.00928 -0.20737)
(9.52149 -0.306746 0.0136705)
(9.27531 -1.04396 0.0449734)
(8.62212 -2.04075 0.0753021)
(7.44869 -3.53514 0.103561)
(6.83695 -6.16078 0.0448072)
(3.93687 -8.95678 0.11404)
(-0.127313 -0.12101 -1.30956)
(-0.0806537 -0.374626 -3.03288)
(0.0840976 -0.37645 -3.032)
(0.496588 -0.26499 -1.31561)
(0.00823855 -0.0499597 -1.24896)
(18.0226 25.322 -0.337007)
(29.8107 12.5185 -0.835192)
(38.2765 7.75942 -0.644261)
(42.4072 5.15867 -0.415722)
(48.6262 2.88116 -0.201784)
(9.02234 -0.109382 0.0134101)
(8.65372 -0.372026 0.0429237)
(7.72322 -0.724918 0.0687597)
(6.00342 -1.26085 0.0891482)
(4.27786 -2.95571 0.0261035)
(-0.0720485 0.0145036 -1.29255)
(-0.377293 -0.0777238 -3.03308)
(-0.227031 -0.22255 -3.15627)
(0.22644 -0.224498 -3.15675)
(0.378583 -0.0827738 -3.03383)
(0.401552 -0.0855184 -1.28939)
(6.74305 10.4878 -0.457965)
(24.7941 4.71662 -0.835142)
(34.8008 2.8445 -0.627601)
(39.6857 1.8594 -0.399076)
(46.7479 1.03946 -0.190661)
(9.02236 0.109389 0.0134101)
(8.65374 0.372061 0.0429241)
(7.72324 0.724994 0.0687602)
(6.00344 1.26099 0.0891559)
(3.33702 1.07367 0.0319701)
(-0.123863 0.00770235 -1.30201)
(-0.37839 0.0873278 -3.03166)
(-0.228031 0.230316 -3.15679)
(0.224558 0.228613 -3.15323)
(0.375079 0.0819352 -3.03164)
(0.472121 0.0437475 -1.29224)
(4.12655 -3.51133 -0.5046)
(24.7942 -4.71655 -0.835121)
(34.8008 -2.84463 -0.627564)
(39.6857 -1.85973 -0.398982)
(46.7479 -1.03985 -0.190583)
(9.52153 0.306752 0.0136709)
(9.27536 1.04398 0.0449742)
(8.6222 2.0408 0.0753031)
(7.44883 3.53521 0.103546)
(4.52528 4.78798 0.0385225)
(-0.267539 0.49999 -1.31623)
(-0.0862708 0.381449 -3.0352)
(0.0789041 0.378043 -3.0311)
(0.418551 0.424304 -1.28522)
(0.0888375 0.100407 -1.26014)
(11.8518 -17.7815 -0.361575)
(29.8103 -12.5183 -0.835131)
(38.2766 -7.75969 -0.644139)
(42.4072 -5.15896 -0.415524)
(48.6263 -2.88145 -0.20163)
(10.4158 0.442584 0.0138009)
(10.3713 1.49694 0.0470835)
(10.1643 2.88938 0.0834574)
(9.86471 4.90131 0.126839)
(7.65834 7.09828 0.0643813)
(5.0765 12.3168 0.0881979)
(-0.0481599 0.0076945 -1.24853)
(-0.090182 0.402348 -1.28853)
(0.0395406 0.474777 -1.29157)
(0.0998 0.0891501 -1.25919)
(26.89 -29.8735 -0.157573)
(38.3049 -17.6198 -0.833636)
(43.788 -10.714 -0.644818)
(46.5139 -7.15507 -0.418149)
(51.5933 -4.00946 -0.207283)
(11.5371 0.502319 0.0133401)
(11.7157 1.68358 0.0466828)
(11.9916 3.19182 0.0854398)
(12.4175 5.27034 0.135225)
(13.2537 8.31255 0.191306)
(11.5535 11.8579 0.103303)
(35.0172 -39.3471 0.591868)
(42.8208 -27.9242 -0.287001)
(45.8738 -17.4711 -0.714077)
(49.6478 -11.5408 -0.608705)
(50.829 -7.8405 -0.381763)
(54.9789 -4.4323 -0.192126)
(12.7068 0.494386 0.0122311)
(13.0818 1.64114 0.042793)
(13.767 3.06492 0.0780772)
(14.9111 4.9622 0.122536)
(16.8131 7.67391 0.175445)
(19.928 11.0176 0.18795)
(22.0396 18.3155 0.108888)
(23.6431 14.6716 -0.0977827)
(60.7599 -33.7096 0.864228)
(54.8536 -33.371 1.01119)
(52.4732 -23.6873 0.170479)
(53.2763 -16.3381 -0.416328)
(55.066 -11.2851 -0.440584)
(55.072 -7.66429 -0.277151)
(58.3257 -4.36592 -0.142538)
(13.7812 0.437024 0.0103131)
(14.2972 1.43465 0.0351562)
(15.255 2.6262 0.0601009)
(16.8258 4.10573 0.0813929)
(19.2768 5.97691 0.0838277)
(23.1472 8.2981 0.0328149)
(28.5443 9.89517 -0.0400829)
(32.0876 12.288 -0.0541471)
(46.1545 19.1647 0.208147)
(56.3423 6.83573 0.112208)
(67.7174 -1.48594 0.084507)
(71.7297 -11.3251 0.032049)
(70.0937 -27.9338 0.138302)
(63.082 -26.6131 0.806173)
(60.8623 -23.8448 0.654384)
(59.3753 -18.8348 0.230077)
(59.0394 -13.837 -0.108695)
(59.6 -9.8256 -0.175238)
(58.661 -6.79337 -0.123253)
(61.2818 -3.90688 -0.0651754)
(14.6784 0.351523 0.00887436)
(15.2863 1.14288 0.0295139)
(16.4067 2.05707 0.0490111)
(18.1961 3.12707 0.0636011)
(20.8569 4.36836 0.064857)
(24.7041 5.69011 0.042401)
(29.9769 6.7949 0.0153666)
(36.8789 6.33383 -0.000787215)
(44.7974 4.92533 0.0181718)
(52.6842 0.906539 0.0775348)
(59.2195 -4.97081 0.168277)
(63.3396 -11.2792 0.282801)
(65.0352 -15.9438 0.396262)
(64.8047 -17.9304 0.443443)
(63.9741 -17.0396 0.356373)
(63.4788 -14.2372 0.15447)
(63.1143 -10.9166 -0.0236048)
(63.0564 -8.00917 -0.0819752)
(61.5645 -5.62098 -0.063264)
(63.8165 -3.25419 -0.0315612)
(15.3596 0.253433 0.00788792)
(16.0219 0.817903 0.0258243)
(17.2284 1.45286 0.0424857)
(19.1104 2.16048 0.0556818)
(21.8006 2.92156 0.0619105)
(25.464 3.64012 0.0587111)
(30.2084 4.0855 0.0528523)
(35.9982 3.82377 0.054021)
(42.4386 2.53276 0.0691267)
(48.9067 0.0449304 0.105191)
(54.7178 -3.3909 0.158654)
(59.2661 -7.01383 0.217534)
(62.3586 -9.88327 0.264217)
(64.2083 -11.4344 0.272643)
(65.2938 -11.2178 0.221841)
(65.8709 -9.73481 0.124705)
(65.7437 -7.75311 0.0323291)
(65.48 -5.83349 -0.012813)
(63.7084 -4.14599 -0.016411)
(65.7698 -2.41664 -0.00671375)
(15.8121 0.151896 0.00732975)
(16.5031 0.487564 0.0237414)
(17.7483 0.857826 0.039147)
(19.6574 1.25574 0.0522306)
(22.3148 1.65851 0.0616175)
(25.8066 1.99924 0.0668748)
(30.1616 2.14681 0.0708924)
(35.291 1.90536 0.0778482)
(40.9556 1.10869 0.091238)
(46.7793 -0.259095 0.114292)
(52.2949 -2.08214 0.144312)
(57.1514 -4.00295 0.174304)
(61.1356 -5.57238 0.193977)
(64.2191 -6.43189 0.191843)
(66.4473 -6.41231 0.161304)
(67.7508 -5.69949 0.109043)
(67.8789 -4.63509 0.0559416)
(67.5444 -3.51722 0.0215173)
(65.5637 -2.48678 0.0090913)
(67.4386 -1.44385 0.00708453)
(16.0361 0.0504716 0.0070495)
(16.7388 0.161642 0.0227681)
(17.9972 0.283365 0.0376212)
(19.9094 0.412076 0.05062)
(22.5361 0.538561 0.0611994)
(25.9303 0.639234 0.0694167)
(30.0886 0.671398 0.0764845)
(34.917 0.576667 0.0848007)
(40.2056 0.311307 0.0977318)
(45.6246 -0.140891 0.114199)
(50.8408 -0.727765 0.133212)
(55.5772 -1.34234 0.150693)
(59.653 -1.84784 0.160721)
(62.9841 -2.13105 0.156766)
(65.4935 -2.14057 0.135826)
(67.0034 -1.91773 0.101853)
(67.242 -1.56418 0.0650721)
(66.9839 -1.17495 0.0362566)
(65.1237 -0.809105 0.0207475)
(67.2195 -0.461945 0.0134686)
(16.062 -0.0503386 0.0206787)
(16.7661 -0.161229 0.066471)
(18.0254 -0.282746 0.109129)
(19.9385 -0.411617 0.145928)
(22.5673 -0.539097 0.17524)
(25.9663 -0.641693 0.197757)
(30.134 -0.675821 0.21823)
(34.9776 -0.581582 0.243147)
(40.2835 -0.315327 0.280907)
(45.7213 0.142005 0.328365)
(50.9559 0.736751 0.382428)
(55.706 1.36053 0.43209)
(59.7873 1.87388 0.461959)
(63.1151 2.15924 0.455196)
(65.6159 2.16216 0.40133)
(67.1186 1.9263 0.308665)
(67.3559 1.56072 0.205242)
(67.0992 1.16699 0.123526)
(65.2334 0.803085 0.0785112)
(67.3133 0.459022 0.0503181)
(15.8388 -0.151442 0.0210771)
(16.5313 -0.485885 0.0680338)
(17.7772 -0.855532 0.111072)
(19.6866 -1.25395 0.146462)
(22.3452 -1.65996 0.17095)
(25.8422 -2.00789 0.184683)
(30.2098 -2.16374 0.196258)
(35.359 -1.92566 0.218727)
(41.0511 -1.12459 0.26034)
(46.9044 0.258941 0.326555)
(52.4491 2.10832 0.409405)
(57.332 4.06138 0.492799)
(61.33 5.66129 0.552701)
(64.4078 6.532 0.556045)
(66.6138 6.4906 0.481161)
(67.8924 5.73086 0.342527)
(68.0082 4.62405 0.194043)
(67.6731 3.49194 0.0940837)
(65.6866 2.46782 0.0548065)
(67.5446 1.43438 0.0376697)
(15.388 -0.252559 0.022012)
(16.0521 -0.814557 0.0719213)
(17.259 -1.44713 0.116772)
(19.1397 -2.15373 0.150333)
(21.8282 -2.919 0.164231)
(25.4961 -3.65301 0.15371)
(30.2583 -4.11984 0.138179)
(36.081 -3.87072 0.146293)
(42.5653 -2.57162 0.197246)
(49.0817 -0.0537871 0.302973)
(54.9415 3.43592 0.446291)
(59.5365 7.1283 0.604579)
(62.6496 10.0698 0.740452)
(64.4734 11.6588 0.775987)
(65.4967 11.3925 0.657343)
(66.0116 9.79262 0.405332)
(65.8658 7.71429 0.146714)
(65.6168 5.77292 0.0135582)
(63.8489 4.10514 -0.00389494)
(65.8948 2.39648 0.00661187)
(14.7102 -0.34997 0.0239607)
(15.3209 -1.1369 0.0798664)
(16.4425 -2.04539 0.130974)
(18.2291 -3.10834 0.16783)
(20.8807 -4.34698 0.169631)
(24.7272 -5.69133 0.10442)
(30.029 -6.84368 0.0238567)
(36.9861 -6.43199 0.00133412)
(44.9797 -5.02407 0.0696639)
(52.9531 -0.944864 0.246757)
(59.5834 5.02984 0.501917)
(63.8069 11.4859 0.81108)
(65.5624 16.3282 1.13104)
(65.2572 18.4085 1.25805)
(64.2491 17.4155 1.03918)
(63.5878 14.3464 0.49593)
(63.1983 10.833 -0.0146168)
(63.2 7.9041 -0.177635)
(61.7321 5.55452 -0.126403)
(63.9709 3.21979 -0.0568526)
(13.818 -0.434727 0.0271767)
(14.3398 -1.42561 0.0935935)
(15.3037 -2.60546 0.161186)
(16.8755 -4.06096 0.224163)
(19.3049 -5.88645 0.250989)
(23.153 -8.17664 0.128274)
(28.5653 -9.86031 -0.0963267)
(35.2924 -14.2846 -0.0964153)
(44.0038 -11.8264 -0.0324102)
(54.9355 -7.75767 0.146381)
(63.024 0.511668 0.403426)
(67.4784 10.3471 0.798209)
(66.984 16.8891 1.37445)
(63.6079 27.4553 2.39043)
(61.1569 24.5429 1.91723)
(59.3116 18.931 0.706976)
(58.9836 13.5718 -0.319999)
(59.7312 9.56963 -0.454474)
(58.8495 6.64342 -0.292406)
(61.4594 3.83168 -0.149644)
(12.7508 -0.492183 0.0313659)
(13.1376 -1.63306 0.112269)
(13.846 -3.04707 0.210742)
(15.03 -4.92565 0.355091)
(16.96 -7.60868 0.601635)
(19.959 -10.933 0.911131)
(25.4967 -16.1281 0.353447)
(33.6937 -20.3924 0.123435)
(33.5369 -13.1482 -0.20168)
(70.7596 24.5395 2.2345)
(63.8678 35.013 2.89292)
(54.6847 33.8129 3.44032)
(51.8045 23.4666 0.627171)
(53.0546 15.9409 -1.37028)
(55.3769 10.9903 -1.25256)
(55.4408 7.48688 -0.735975)
(58.6224 4.28027 -0.378006)
(11.5845 -0.501055 0.0344572)
(11.777 -1.68048 0.12408)
(12.079 -3.18783 0.237221)
(12.5464 -5.27086 0.4068)
(13.4104 -8.32126 0.689707)
(15.8747 -14.5071 0.689768)
(15.2585 -14.6258 0.469088)
(48.0526 38.8054 2.78614)
(41.8551 27.3723 -0.984399)
(45.8388 17.2326 -2.37498)
(50.1123 11.4134 -1.81998)
(51.2996 7.74453 -1.08372)
(55.3568 4.38856 -0.536111)
(10.4635 -0.442203 0.0357723)
(10.4314 -1.4982 0.126758)
(10.2455 -2.89738 0.239531)
(9.9829 -4.92863 0.402276)
(10.7776 -9.68277 0.486142)
(11.7234 -13.137 0.71503)
(0.0107827 -0.111857 -5.78625)
(0.00904385 -0.188577 -5.78552)
(20.8334 30.0381 0.424063)
(31.968 27.6156 -1.06987)
(38.5141 17.5734 -2.61597)
(44.2952 10.6962 -1.99611)
(46.9942 7.13103 -1.24375)
(52.0002 4.00199 -0.595033)
(9.56726 -0.306985 0.0356204)
(9.33017 -1.04711 0.12285)
(8.68961 -2.05228 0.224842)
(7.53254 -3.56846 0.357703)
(6.94279 -6.25155 0.422555)
(3.95316 -9.03149 0.527625)
(-0.187657 -0.175056 -5.67698)
(-0.330171 -0.773297 -7.03094)
(0.333805 -0.774439 -7.03077)
(1.32854 -0.414389 -5.69785)
(-0.019257 -0.074657 -5.72163)
(17.8663 25.1547 -2.10094)
(30.1705 12.5444 -2.80116)
(38.7823 7.78722 -2.09928)
(42.8746 5.17566 -1.28838)
(49.0338 2.89319 -0.596994)
(9.06616 -0.109512 0.035089)
(8.70387 -0.373418 0.11822)
(7.77888 -0.729665 0.209434)
(6.05758 -1.27447 0.3118)
(4.30822 -2.99865 0.324957)
(-0.109946 0.0141998 -5.78598)
(-0.775222 -0.327879 -7.03107)
(-0.355188 -0.351839 -7.29202)
(0.356262 -0.353236 -7.29167)
(0.776659 -0.330683 -7.03258)
(1.12552 -0.0987188 -5.71803)
(6.68814 10.4978 -2.81507)
(25.2034 4.74599 -2.80087)
(35.2797 2.86526 -2.05753)
(40.1238 1.8735 -1.24663)
(47.1369 1.04741 -0.568312)
(9.06618 0.10952 0.0350892)
(8.70389 0.373454 0.11822)
(7.77891 0.729742 0.209424)
(6.0576 1.2746 0.31179)
(3.35348 1.09412 0.307823)
(-0.186025 0.00816172 -5.79696)
(-0.776214 0.336115 -7.0307)
(-0.355457 0.358402 -7.29177)
(0.355177 0.357598 -7.2899)
(0.774488 0.332215 -7.02767)
(1.29147 0.0536129 -5.70826)
(4.13331 -3.54417 -2.89547)
(25.2035 -4.74581 -2.80083)
(35.2797 -2.86541 -2.05766)
(40.1238 -1.87383 -1.2468)
(47.137 -1.04777 -0.568414)
(9.5673 0.306991 0.0356215)
(9.33023 1.04714 0.122851)
(8.68969 2.05233 0.224832)
(7.53269 3.56855 0.357704)
(4.5985 4.86331 0.371766)
(-0.413955 1.33098 -5.69819)
(-0.333672 0.778926 -7.03112)
(0.330858 0.776078 -7.03009)
(1.22032 1.21941 -5.7847)
(0.131887 0.15193 -5.71842)
(11.6834 -17.675 -2.54343)
(30.1702 -12.5443 -2.8012)
(38.7824 -7.78749 -2.09955)
(42.8747 -5.17595 -1.28867)
(49.0339 -2.89348 -0.597171)
(10.4636 0.442209 0.0357754)
(10.4315 1.49823 0.126764)
(10.2456 2.89743 0.239542)
(9.98289 4.92868 0.402302)
(7.79967 7.17632 0.467712)
(5.04773 12.4235 0.664821)
(-0.0801789 -0.0114966 -5.71829)
(-0.100513 1.12611 -5.71556)
(0.0514639 1.29271 -5.70864)
(0.151486 0.133249 -5.71814)
(26.9329 -29.7256 -1.4835)
(38.5142 -17.5736 -2.61608)
(44.2947 -10.6963 -1.99624)
(46.994 -7.13113 -1.24383)
(52.0003 -4.00212 -0.595096)
(11.5846 0.501062 0.0344622)
(11.7771 1.68051 0.124091)
(12.0791 3.18788 0.237238)
(12.5465 5.27091 0.406823)
(13.4102 8.32133 0.689734)
(11.7501 11.9611 0.72368)
(35.6016 -39.5086 1.84177)
(41.8549 -27.3728 -0.984437)
(45.8381 -17.2326 -2.37495)
(50.112 -11.4136 -1.81991)
(51.2995 -7.74474 -1.08366)
(55.3569 -4.38872 -0.53607)
(12.7509 0.492194 0.031372)
(13.1378 1.6331 0.112283)
(13.8461 3.04714 0.210764)
(15.0301 4.92577 0.355125)
(16.9601 7.60883 0.601722)
(19.9598 10.9335 0.911183)
(22.0872 18.3123 0.522378)
(23.5731 14.5934 0.0286899)
(61.5055 -34.034 3.40643)
(54.6851 -33.8131 3.44025)
(51.8032 -23.4665 0.627179)
(53.0543 -15.9409 -1.37014)
(55.3767 -10.9903 -1.25247)
(55.4407 -7.48691 -0.735895)
(58.6226 -4.28028 -0.377936)
(13.8181 0.434741 0.027183)
(14.34 1.42566 0.0936069)
(15.3039 2.60555 0.161207)
(16.8757 4.06112 0.224192)
(19.3052 5.88679 0.251067)
(23.1533 8.17704 0.128356)
(28.5656 9.86043 -0.096323)
(32.7395 12.5122 -0.0793738)
(46.2093 19.0989 -0.0496318)
(56.5649 6.73589 0.0540479)
(68.043 -1.47718 0.41013)
(72.2525 -11.205 0.955345)
(70.9586 -28.5067 1.74257)
(63.6072 -27.4547 2.39042)
(61.1565 -24.5433 1.91745)
(59.3113 -18.931 0.707142)
(58.9833 -13.5718 -0.31987)
(59.731 -9.56968 -0.454407)
(58.8493 -6.64342 -0.292356)
(61.4595 -3.83165 -0.149598)
(14.7103 0.349984 0.0239667)
(15.3211 1.13694 0.0798783)
(16.4427 2.04547 0.13099)
(18.2293 3.10845 0.167851)
(20.881 4.3471 0.169655)
(24.7275 5.69144 0.104441)
(30.0292 6.84373 0.0238687)
(36.9863 6.43215 0.00134757)
(44.98 5.02421 0.0696094)
(52.9533 0.944858 0.246714)
(59.5832 -5.03004 0.501801)
(63.8063 -11.4863 0.810988)
(65.5616 -16.3278 1.13075)
(65.2567 -18.4088 1.25781)
(64.2487 -17.4155 1.039)
(63.5875 -14.3464 0.495858)
(63.198 -10.8331 -0.0146323)
(63.1998 -7.90418 -0.177626)
(61.7321 -5.55457 -0.126393)
(63.971 -3.21978 -0.0568378)
(15.3882 0.25257 0.0220178)
(16.0524 0.814589 0.0719318)
(17.2593 1.44718 0.116785)
(19.14 2.1538 0.150348)
(21.8285 2.91907 0.164246)
(25.4964 3.65307 0.15372)
(30.2585 4.11989 0.138181)
(36.0812 3.87079 0.146276)
(42.5655 2.57173 0.197242)
(49.0818 0.0537689 0.302957)
(54.9413 -3.43599 0.44622)
(59.5361 -7.12836 0.604428)
(62.6491 -10.0698 0.740257)
(64.4729 -11.6587 0.775537)
(65.4962 -11.3923 0.656928)
(66.0112 -9.79248 0.405266)
(65.8655 -7.71417 0.146851)
(65.6167 -5.77288 0.0136277)
(63.8489 -4.10514 -0.00384781)
(65.895 -2.39646 0.00669099)
(15.839 0.151449 0.0210828)
(16.5315 0.485904 0.0680434)
(17.7775 0.855563 0.111084)
(19.6869 1.25399 0.146474)
(22.3455 1.66 0.17096)
(25.8425 2.00792 0.184688)
(30.21 2.16377 0.196254)
(35.3592 1.9257 0.218708)
(41.0513 1.12464 0.260319)
(46.9044 -0.258941 0.326515)
(52.4489 -2.10836 0.409329)
(57.3316 -4.06142 0.492706)
(61.3295 -5.66122 0.552623)
(64.4073 -6.53201 0.555841)
(66.6134 -6.49066 0.480894)
(67.892 -5.73095 0.342514)
(68.0079 -4.6242 0.194144)
(67.673 -3.49203 0.0941467)
(65.6867 -2.46786 0.0548563)
(67.5448 -1.4344 0.0377456)
(16.0622 0.0503407 0.0206845)
(16.7663 0.161235 0.0664804)
(18.0257 0.282756 0.10914)
(19.9388 0.411629 0.145939)
(22.5676 0.539109 0.175248)
(25.9666 0.641704 0.19776)
(30.1342 0.675833 0.218223)
(34.9778 0.581595 0.243126)
(40.2837 0.315333 0.28087)
(45.7213 -0.142017 0.32831)
(50.9557 -0.736768 0.382359)
(55.7056 -1.36054 0.432013)
(59.7868 -1.87388 0.461884)
(63.1145 -2.1592 0.455128)
(65.6154 -2.16209 0.401267)
(67.1182 -1.92623 0.308595)
(67.3556 -1.56064 0.20521)
(67.099 -1.16694 0.12351)
(65.2335 -0.80306 0.078501)
(67.3135 -0.459017 0.0503144)
(16.108 -0.0501375 0.0339809)
(16.8086 -0.1604 0.109781)
(18.0615 -0.281692 0.181176)
(19.9657 -0.411179 0.242983)
(22.5844 -0.540862 0.292451)
(25.9752 -0.647741 0.330765)
(30.1393 -0.686172 0.364727)
(34.9856 -0.593177 0.404104)
(40.2926 -0.326028 0.462816)
(45.726 0.13927 0.533829)
(50.946 0.746033 0.611963)
(55.6655 1.38373 0.681229)
(59.7009 1.90934 0.720749)
(62.9752 2.1986 0.70546)
(65.4319 2.19225 0.620517)
(66.9182 1.93604 0.479378)
(67.1737 1.55033 0.322932)
(66.9593 1.14906 0.200054)
(65.1386 0.789091 0.132862)
(67.2565 0.451425 0.0865816)
(15.8859 -0.150691 0.0345633)
(16.5744 -0.483102 0.112079)
(17.8125 -0.851603 0.183926)
(19.7101 -1.25139 0.243288)
(22.3546 -1.66458 0.284714)
(25.8412 -2.0285 0.308266)
(30.2081 -2.20183 0.328055)
(35.3656 -1.97249 0.364515)
(41.0732 -1.16647 0.429907)
(46.9333 0.24331 0.52884)
(52.4703 2.13236 0.650588)
(57.3256 4.13303 0.77009)
(61.2717 5.77977 0.853926)
(64.2785 6.66878 0.854092)
(66.4178 6.59963 0.740037)
(67.6648 5.76797 0.532362)
(67.8035 4.58869 0.307134)
(67.5286 3.43325 0.154704)
(65.5997 2.42415 0.0957893)
(67.5014 1.41068 0.0664695)
(15.4376 -0.251007 0.0360629)
(16.0971 -0.80847 0.117701)
(17.2934 -1.43697 0.191682)
(19.1554 -2.14248 0.247223)
(21.8173 -2.91848 0.270156)
(25.4652 -3.69236 0.250416)
(30.23 -4.2041 0.22462)
(36.0785 -3.98149 0.23617)
(42.6009 -2.67029 0.313855)
(49.1442 -0.0978479 0.482276)
(54.9979 3.47181 0.698534)
(59.5537 7.26637 0.930201)
(62.5778 10.3317 1.13015)
(64.2678 11.973 1.17974)
(65.1632 11.6434 1.01232)
(65.6281 9.85529 0.642545)
(65.5555 7.60184 0.240995)
(65.4416 5.63256 0.030191)
(63.7707 4.01158 0.00446479)
(65.8736 2.34662 0.0170753)
(14.7649 -0.347207 0.038924)
(15.3711 -1.12569 0.129323)
(16.48 -2.0226 0.211646)
(18.237 -3.07001 0.26939)
(20.8292 -4.30099 0.264111)
(24.6281 -5.7087 0.119054)
(29.9419 -6.96933 -0.0220954)
(36.9709 -6.64354 -0.0561587)
(45.0593 -5.24748 0.0564714)
(53.0937 -1.05076 0.371153)
(59.7295 5.05165 0.77122)
(63.9134 11.7037 1.23757)
(65.5195 16.8315 1.76329)
(64.9341 19.0603 1.93812)
(63.6378 17.9972 1.61922)
(62.8715 14.4805 0.787832)
(62.6983 10.5833 -0.0663698)
(63.0138 7.66428 -0.318694)
(61.703 5.40655 -0.208388)
(64.005 3.13766 -0.0929256)
(13.8815 -0.430834 0.0437227)
(14.4027 -1.40924 0.14992)
(15.3608 -2.56553 0.256887)
(16.9046 -3.9656 0.353558)
(19.218 -5.65464 0.388954)
(22.907 -7.70372 -0.089986)
(28.348 -9.65442 -0.521626)
(35.2538 -14.3334 -0.393591)
(44.0513 -11.9795 -0.334865)
(55.1626 -7.92148 0.122312)
(63.2555 0.50396 0.670558)
(67.7487 10.5618 1.37055)
(67.2388 17.487 2.42262)
(63.081 28.8319 4.0562)
(60.0484 25.7539 3.99607)
(57.8812 19.0083 1.95312)
(58.1457 12.888 -0.368773)
(59.5949 9.03834 -0.704049)
(58.9061 6.3421 -0.444203)
(61.5654 3.66775 -0.235779)
(12.8253 -0.488232 0.0497584)
(13.2213 -1.61728 0.176807)
(13.9568 -3.008 0.330743)
(15.2129 -4.83036 0.565277)
(17.2431 -7.37086 1.26516)
(19.3706 -10.4986 1.67183)
(24.5482 -15.6121 0.371838)
(33.43 -20.1124 0.243898)
(33.3533 -13.1002 -0.534629)
(71.7671 25.262 4.6016)
(63.6356 36.1361 6.34884)
(51.2404 33.167 8.51272)
(48.7668 22.3321 0.920104)
(51.9889 14.8916 -3.9448)
(55.699 10.3297 -2.7619)
(55.8347 7.09755 -1.39089)
(58.9436 4.0857 -0.724657)
(11.6665 -0.498358 0.0546775)
(11.8724 -1.67193 0.19565)
(12.2103 -3.17043 0.373884)
(12.7586 -5.23799 0.651465)
(13.6945 -8.24303 1.28148)
(15.8736 -14.4798 1.50351)
(14.931 -14.3927 0.918334)
(44.505 36.5989 7.42113)
(39.1031 25.8449 -3.98511)
(45.5923 16.7292 -6.04568)
(50.8472 11.0856 -3.63729)
(51.9353 7.50088 -1.96517)
(55.8571 4.28309 -0.977458)
(10.5471 -0.441239 0.0569863)
(10.5276 -1.4979 0.200933)
(10.3746 -2.90226 0.379269)
(10.1873 -4.95 0.645129)
(10.9839 -9.76961 0.921414)
(11.8411 -13.1457 1.58222)
(-0.00514302 -0.130668 -10.6476)
(0.0216042 -0.219256 -10.6825)
(19.183 28.0959 1.71292)
(29.5939 26.3749 -2.6783)
(39.1776 17.5634 -5.443)
(45.2409 10.5979 -3.60149)
(47.7401 7.04735 -2.15626)
(52.6037 3.97693 -1.02309)
(9.64831 -0.30711 0.0571031)
(9.41933 -1.05089 0.196113)
(8.79735 -2.06702 0.357505)
(7.68054 -3.61488 0.56739)
(7.09405 -6.35602 0.786602)
(4.07487 -9.21321 1.09606)
(-0.206199 -0.20608 -10.34)
(0.0317551 -0.553531 -17.1929)
(-0.0279757 -0.554289 -17.1933)
(1.71276 -0.510542 -10.2785)
(-0.0352304 -0.132682 -10.5831)
(17.1131 24.1072 -4.6315)
(31.1588 12.702 -5.12306)
(39.762 7.84798 -3.58073)
(43.639 5.21022 -2.13549)
(49.6588 2.91726 -0.978824)
(9.1443 -0.109713 0.0564766)
(8.78582 -0.375558 0.189678)
(7.86618 -0.73719 0.333921)
(6.14992 -1.29748 0.488862)
(4.37696 -3.06585 0.575969)
(-0.131211 -0.0060461 -10.6468)
(-0.555824 0.0332623 -17.1996)
(-0.472306 -0.469183 -17.726)
(0.473776 -0.470235 -17.725)
(0.55667 0.0323525 -17.1947)
(1.45105 -0.108488 -10.4059)
(6.83196 10.5718 -5.79054)
(26.191 4.89172 -4.74069)
(36.1832 2.93785 -3.34236)
(40.8344 1.91546 -1.98623)
(47.7325 1.06851 -0.897789)
(9.14431 0.109722 0.0564773)
(8.78583 0.375596 0.189678)
(7.8662 0.737271 0.333938)
(6.14995 1.29761 0.488875)
(3.39641 1.12107 0.533431)
(-0.222572 0.0225313 -10.6737)
(-0.55537 -0.027175 -17.1875)
(-0.471734 0.475315 -17.7243)
(0.473384 0.474781 -17.7243)
(0.554149 -0.0280753 -17.1911)
(1.65276 0.0708009 -10.3391)
(4.3322 -3.66566 -5.63555)
(26.1912 -4.89158 -4.74073)
(36.1832 -2.93802 -3.34227)
(40.8345 -1.91575 -1.98601)
(47.7325 -1.06885 -0.897625)
(9.64835 0.307118 0.0571045)
(9.41938 1.05092 0.196115)
(8.79742 2.06707 0.357527)
(7.68069 3.61497 0.567379)
(4.70176 4.96846 0.666307)
(-0.510934 1.71837 -10.2693)
(0.0292294 0.557263 -17.1929)
(-0.029827 0.555652 -17.1935)
(1.60985 1.60672 -10.379)
(0.120691 0.179146 -10.619)
(11.5159 -17.2223 -5.55236)
(31.1586 -12.7017 -5.12306)
(39.7622 -7.84821 -3.58067)
(43.6392 -5.21052 -2.13522)
(49.659 -2.91751 -0.978522)
(10.5472 0.441247 0.0569909)
(10.5277 1.49794 0.200943)
(10.3747 2.90232 0.379282)
(10.1873 4.95008 0.645143)
(7.99993 7.24233 0.878759)
(5.19655 12.5644 1.46015)
(-0.124185 -0.0524011 -10.5717)
(-0.106565 1.45328 -10.4013)
(0.0706479 1.65348 -10.3399)
(0.195955 0.126164 -10.6132)
(25.1535 -28.3431 -3.39293)
(39.1777 -17.5635 -5.44291)
(45.2405 -10.5979 -3.6014)
(47.74 -7.04732 -2.15605)
(52.6038 -3.97704 -1.02286)
(11.6666 0.498366 0.0546849)
(11.8725 1.67196 0.195666)
(12.2104 3.17049 0.373907)
(12.7587 5.23805 0.651494)
(13.6943 8.24311 1.28149)
(11.861 11.8816 1.58142)
(32.8291 -37.0918 4.66395)
(39.1029 -25.8454 -3.98495)
(45.5916 -16.7291 -6.04564)
(50.847 -11.0858 -3.63721)
(51.9352 -7.50117 -1.96508)
(55.8573 -4.28325 -0.977371)
(12.8254 0.488243 0.0497677)
(13.2215 1.61732 0.176827)
(13.9569 3.00808 0.330776)
(15.213 4.8305 0.565328)
(17.2432 7.37105 1.26526)
(19.3712 10.4992 1.67183)
(21.2369 17.9202 0.76233)
(23.3377 14.4691 0.0202039)
(61.4451 -34.72 7.65409)
(51.2409 -33.1673 8.51233)
(48.7659 -22.3321 0.920198)
(51.9887 -14.8916 -3.9447)
(55.6989 -10.3298 -2.7619)
(55.8347 -7.09759 -1.39087)
(58.9437 -4.0857 -0.724617)
(13.8817 0.430848 0.0437317)
(14.4029 1.40928 0.149939)
(15.361 2.56562 0.256916)
(16.9048 3.96575 0.353599)
(19.2182 5.6549 0.388992)
(22.9074 7.70407 -0.0899357)
(28.3483 9.65462 -0.521597)
(32.5923 12.2735 -0.371936)
(46.2018 19.1156 -0.415711)
(56.8799 6.79498 -0.064318)
(68.3688 -1.48372 0.675088)
(72.686 -11.2903 1.58685)
(71.4673 -29.2861 3.27693)
(63.0804 -28.8313 4.05576)
(60.0481 -25.7542 3.99572)
(57.881 -19.0083 1.95306)
(58.1454 -12.8881 -0.368756)
(59.5947 -9.03838 -0.704001)
(58.906 -6.3421 -0.444147)
(61.5655 -3.66773 -0.235726)
(14.7651 0.34722 0.0389329)
(15.3713 1.12573 0.12934)
(16.4802 2.02267 0.21167)
(18.2373 3.07011 0.269421)
(20.8296 4.30112 0.264145)
(24.6284 5.70881 0.119086)
(29.9421 6.96938 -0.0220667)
(36.9711 6.64365 -0.0561677)
(45.0596 5.24759 0.0564495)
(53.0939 1.05076 0.371101)
(59.7293 -5.05185 0.771029)
(63.9129 -11.7041 1.23743)
(65.5188 -16.8311 1.76314)
(64.9336 -19.0606 1.93813)
(63.6375 -17.997 1.61927)
(62.8713 -14.4805 0.787844)
(62.6981 -10.5834 -0.0663675)
(63.0136 -7.66435 -0.318692)
(61.703 -5.4066 -0.208361)
(64.0051 -3.13765 -0.0928908)
(15.4378 0.251018 0.0360715)
(16.0973 0.8085 0.117716)
(17.2936 1.43702 0.191702)
(19.1557 2.14254 0.247246)
(21.8176 2.91854 0.270178)
(25.4655 3.69241 0.250434)
(30.2302 4.20414 0.224626)
(36.0787 3.98156 0.236151)
(42.6011 2.67039 0.313777)
(49.1442 0.0977936 0.482155)
(54.9977 -3.47186 0.698414)
(59.5533 -7.26642 0.930017)
(62.5773 -10.3316 1.13002)
(64.2673 -11.9729 1.17981)
(65.1628 -11.6434 1.01252)
(65.6277 -9.85524 0.642508)
(65.5553 -7.60175 0.24082)
(65.4414 -5.63253 0.0300924)
(63.7707 -4.01159 0.00443832)
(65.8738 -2.34661 0.0170767)
(15.8861 0.150697 0.0345718)
(16.5747 0.48312 0.112093)
(17.8128 0.851632 0.183943)
(19.7104 1.25143 0.243305)
(22.3549 1.66461 0.284729)
(25.8415 2.02853 0.308274)
(30.2083 2.20186 0.328049)
(35.3658 1.97252 0.364487)
(41.0734 1.16652 0.429836)
(46.9333 -0.243314 0.528731)
(52.4701 -2.13241 0.650462)
(57.3252 -4.13304 0.769952)
(61.2713 -5.77973 0.853788)
(64.2781 -6.66871 0.854012)
(66.4173 -6.59952 0.740025)
(67.6645 -5.768 0.532232)
(67.8032 -4.58882 0.306917)
(67.5284 -3.43335 0.154578)
(65.5997 -2.4242 0.0957431)
(67.5015 -1.41071 0.0664578)
(16.1083 0.0501397 0.0339895)
(16.8089 0.160406 0.109794)
(18.0618 0.281702 0.181192)
(19.966 0.41119 0.242999)
(22.5846 0.540873 0.292463)
(25.9755 0.647749 0.330769)
(30.1395 0.686181 0.364716)
(34.9858 0.593187 0.404073)
(40.2927 0.326033 0.462764)
(45.726 -0.139282 0.533751)
(50.9458 -0.746047 0.61186)
(55.6651 -1.38374 0.681113)
(59.7004 -1.90933 0.720636)
(62.9747 -2.19858 0.705356)
(65.4314 -2.19224 0.620425)
(66.9178 -1.93601 0.4793)
(67.1734 -1.55027 0.322873)
(66.9592 -1.14902 0.200016)
(65.1386 -0.789075 0.132843)
(67.2567 -0.451423 0.0865777)
(16.178 -0.0498442 0.0477204)
(16.8756 -0.159321 0.153829)
(18.1217 -0.280419 0.254146)