/*--------------------------------*- C++ -*----------------------------------*\
  =========                 |
  \\      /  F ield         | OpenFOAM: The Open Source CFD Toolbox
   \\    /   O peration     | Website:  https://openfoam.org
    \\  /    A nd           | Version:  11
     \\/     M anipulation  |
\*---------------------------------------------------------------------------*/
FoamFile
{
    format      ascii;
    class       volScalarField;
    location    "0.0003";
    object      Vc;
}
// * * * * * * * * * * * * * * * * * * * * * * * * * * * * * * * * * * * * * //

dimensions      [0 3 0 0 0 0 0];

internalField   nonuniform List<scalar> 
21740
(
3.84032e-07
3.84074e-07
3.8418e-07
3.84369e-07
3.84614e-07
3.84863e-07
3.85188e-07
3.85799e-07
3.8652e-07
3.8692e-07
3.8692e-07
3.8652e-07
3.85799e-07
3.85188e-07
3.84863e-07
3.84612e-07
3.84368e-07
3.84179e-07
3.84074e-07
3.84032e-07
3.84074e-07
3.8417e-07
3.8441e-07
3.84811e-07
3.85274e-07
3.85558e-07
3.85704e-07
3.86526e-07
3.87645e-07
3.88075e-07
3.88075e-07
3.87645e-07
3.86526e-07
3.85705e-07
3.85556e-07
3.85275e-07
3.84811e-07
3.84409e-07
3.84171e-07
3.84073e-07
3.84178e-07
3.84412e-07
3.84964e-07
3.85897e-07
3.8695e-07
3.87312e-07
3.86439e-07
3.87695e-07
3.89944e-07
3.90221e-07
3.90221e-07
3.89943e-07
3.87695e-07
3.86439e-07
3.87311e-07
3.8695e-07
3.85898e-07
3.84965e-07
3.84413e-07
3.84176e-07
3.84362e-07
3.84817e-07
3.85899e-07
3.87767e-07
3.89983e-07
3.90484e-07
3.85351e-07
3.86686e-07
3.93731e-07
3.91461e-07
3.9146e-07
3.93731e-07
3.86688e-07
3.8535e-07
3.90482e-07
3.89982e-07
3.87767e-07
3.85899e-07
3.84817e-07
3.84362e-07
3.84602e-07
3.85286e-07
3.86953e-07
3.89983e-07
3.94328e-07
3.97703e-07
3.86094e-07
4.77417e-08
4.91669e-08
4.8642e-08
4.77977e-08
4.92623e-08
4.80444e-08
3.86096e-07
3.97702e-07
3.94328e-07
3.89982e-07
3.86953e-07
3.85286e-07
3.84602e-07
3.84846e-07
3.85579e-07
3.87317e-07
3.90484e-07
3.97703e-07
4.09424e-07
4.98511e-08
5.55171e-08
2.48639e-08
4.1447e-08
4.58065e-08
4.09426e-07
3.97702e-07
3.90482e-07
3.87315e-07
3.85578e-07
3.84846e-07
3.85158e-07
3.85741e-07
3.86446e-07
3.85352e-07
3.86094e-07
4.98511e-08
3.50739e-08
6.09632e-08
3.86096e-07
3.85351e-07
3.86446e-07
3.85742e-07
3.85158e-07
3.85754e-07
3.86581e-07
3.87707e-07
3.8669e-07
4.77417e-08
5.55171e-08
2.42669e-08
3.76893e-08
2.5447e-08
4.69537e-08
3.86691e-07
3.87708e-07
3.86581e-07
3.85754e-07
3.86459e-07
3.87719e-07
3.89961e-07
3.93734e-07
4.91666e-08
2.48639e-08
5.51183e-08
4.27545e-07
4.27954e-07
5.07986e-08
2.53434e-08
5.89159e-08
3.93735e-07
3.89961e-07
3.87718e-07
3.86461e-07
3.86848e-07
3.88165e-07
3.90239e-07
3.91463e-07
4.86427e-08
2.42778e-08
4.28534e-07
4.29902e-07
4.29842e-07
4.28202e-07
6.31106e-08
4.41688e-08
3.91464e-07
3.9024e-07
3.88163e-07
3.86849e-07
3.86848e-07
3.88165e-07
3.9024e-07
3.91463e-07
4.77976e-08
3.73721e-08
4.2721e-07
4.28574e-07
4.29298e-07
4.27417e-07
5.00746e-08
4.21064e-08
3.91462e-07
3.90241e-07
3.88164e-07
3.86849e-07
3.86459e-07
3.87719e-07
3.89962e-07
3.93734e-07
4.92629e-08
5.08414e-08
4.27747e-07
4.28189e-07
5.17053e-08
4.74214e-08
4.9631e-08
3.93734e-07
3.89962e-07
3.87718e-07
3.86461e-07
3.85754e-07
3.86581e-07
3.87707e-07
3.8669e-07
4.80444e-08
4.1447e-08
2.50779e-08
6.30643e-08
5.00727e-08
4.75542e-08
4.66777e-08
3.86691e-07
3.87708e-07
3.86581e-07
3.85754e-07
3.85158e-07
3.85741e-07
3.86446e-07
3.85352e-07
3.86094e-07
4.58061e-08
4.10474e-08
3.86095e-07
3.8535e-07
3.86445e-07
3.85741e-07
3.85158e-07
3.84846e-07
3.85579e-07
3.87317e-07
3.90484e-07
3.97703e-07
4.09421e-07
6.09628e-08
2.5447e-08
4.10474e-08
4.09424e-07
3.97703e-07
3.90484e-07
3.87317e-07
3.85579e-07
3.84846e-07
3.84602e-07
3.85286e-07
3.86953e-07
3.89983e-07
3.94331e-07
3.97703e-07
3.86094e-07
4.69537e-08
5.89159e-08
4.41687e-08
4.21068e-08
4.96305e-08
4.66774e-08
3.86094e-07
3.97703e-07
3.94328e-07
3.89983e-07
3.86953e-07
3.85286e-07
3.84602e-07
3.84362e-07
3.84817e-07
3.85899e-07
3.87767e-07
3.89983e-07
3.90484e-07
3.85351e-07
3.86686e-07
3.93732e-07
3.91462e-07
3.91462e-07
3.93731e-07
3.86686e-07
3.85351e-07
3.90484e-07
3.89983e-07
3.87767e-07
3.85899e-07
3.84817e-07
3.84362e-07
3.84178e-07
3.84412e-07
3.84964e-07
3.85897e-07
3.8695e-07
3.87312e-07
3.86439e-07
3.87695e-07
3.89945e-07
3.9022e-07
3.90221e-07
3.89945e-07
3.87695e-07
3.86439e-07
3.87312e-07
3.8695e-07
3.85897e-07
3.84964e-07
3.84412e-07
3.84178e-07
3.84074e-07
3.8417e-07
3.8441e-07
3.84811e-07
3.85274e-07
3.85558e-07
3.85704e-07
3.86526e-07
3.87645e-07
3.88075e-07
3.88075e-07
3.87645e-07
3.86526e-07
3.85704e-07
3.85558e-07
3.85274e-07
3.84811e-07
3.8441e-07
3.8417e-07
3.84074e-07
3.84032e-07
3.84074e-07
3.84179e-07
3.84369e-07
3.84614e-07
3.84863e-07
3.85188e-07
3.85799e-07
3.8652e-07
3.8692e-07
3.8692e-07
3.8652e-07
3.85799e-07
3.85188e-07
3.84863e-07
3.84614e-07
3.84369e-07
3.8418e-07
3.84074e-07
3.84032e-07
3.84024e-07
3.84063e-07
3.84159e-07
3.84332e-07
3.84569e-07
3.84819e-07
3.85146e-07
3.85764e-07
3.86497e-07
3.86906e-07
3.86906e-07
3.86497e-07
3.85764e-07
3.85146e-07
3.84819e-07
3.84569e-07
3.84332e-07
3.84159e-07
3.84063e-07
3.84024e-07
3.84061e-07
3.84151e-07
3.84375e-07
3.84767e-07
3.8524e-07
3.8555e-07
3.85736e-07
3.86624e-07
3.87799e-07
3.88262e-07
3.88262e-07
3.87799e-07
3.86624e-07
3.85738e-07
3.85549e-07
3.85241e-07
3.84766e-07
3.84375e-07
3.84151e-07
3.84061e-07
3.84155e-07
3.84374e-07
3.8491e-07
3.85846e-07
3.86945e-07
3.87387e-07
3.86579e-07
3.87975e-07
3.90346e-07
3.9067e-07
3.9067e-07
3.90344e-07
3.87975e-07
3.86579e-07
3.87386e-07
3.86946e-07
3.85844e-07
3.8491e-07
3.84374e-07
3.84155e-07
3.84325e-07
3.84766e-07
3.85845e-07
3.87774e-07
3.90148e-07
3.9086e-07
3.85764e-07
3.87471e-07
3.94791e-07
3.92496e-07
3.92497e-07
3.94792e-07
3.87472e-07
3.85762e-07
3.9086e-07
3.90148e-07
3.87774e-07
3.85844e-07
3.84764e-07
3.84325e-07
3.84553e-07
3.85238e-07
3.86945e-07
3.90148e-07
3.94898e-07
3.98854e-07
3.8715e-07
4.79631e-08
4.94725e-08
4.88811e-08
4.80569e-08
4.95452e-08
4.82676e-08
3.87151e-07
3.98853e-07
3.94898e-07
3.90148e-07
3.86946e-07
3.85239e-07
3.84553e-07
3.84791e-07
3.85551e-07
3.87386e-07
3.9086e-07
3.98854e-07
4.10933e-07
5.01327e-08
5.4918e-08
2.38148e-08
4.08137e-08
4.59884e-08
4.10932e-07
3.98853e-07
3.9086e-07
3.87385e-07
3.85549e-07
3.84791e-07
3.85103e-07
3.85735e-07
3.8658e-07
3.85764e-07
3.8715e-07
5.01327e-08
3.42224e-08
6.0294e-08
3.87151e-07
3.85762e-07
3.8658e-07
3.85736e-07
3.85103e-07
3.85698e-07
3.86619e-07
3.87978e-07
3.87471e-07
4.79631e-08
5.4918e-08
2.34039e-08
3.68134e-08
2.4455e-08
4.73313e-08
3.87472e-07
3.87979e-07
3.86619e-07
3.85698e-07
3.86406e-07
3.87795e-07
3.90347e-07
3.94793e-07
4.94725e-08
2.38148e-08
5.47889e-08
4.3008e-07
4.3026e-07
5.12858e-08
2.43956e-08
5.82169e-08
3.94793e-07
3.90348e-07
3.87795e-07
3.86406e-07
3.86795e-07
3.88257e-07
3.90672e-07
3.92496e-07
4.8881e-08
2.34049e-08
4.30818e-07
4.3216e-07
4.32213e-07
4.30798e-07
6.26607e-08
4.33181e-08
3.92496e-07
3.90673e-07
3.88257e-07
3.86795e-07
3.86795e-07
3.88257e-07
3.90673e-07
3.92496e-07
4.80568e-08
3.68019e-08
4.29495e-07
4.30923e-07
4.30991e-07
4.29714e-07
5.05968e-08
4.12735e-08
3.92496e-07
3.90674e-07
3.88256e-07
3.86795e-07
3.86406e-07
3.87795e-07
3.90347e-07
3.94792e-07
4.95449e-08
5.12501e-08
4.30615e-07
4.30267e-07
5.19912e-08
4.71721e-08
4.91763e-08
3.94793e-07
3.9035e-07
3.87794e-07
3.86406e-07
3.85698e-07
3.86619e-07
3.87978e-07
3.87471e-07
4.82676e-08
4.08137e-08
2.45453e-08
6.27351e-08
5.04361e-08
4.70306e-08
4.69486e-08
3.87473e-07
3.87978e-07
3.86617e-07
3.85698e-07
3.85103e-07
3.85735e-07
3.8658e-07
3.85764e-07
3.8715e-07
4.59884e-08
4.03755e-08
3.8715e-07
3.85762e-07
3.86579e-07
3.85735e-07
3.85103e-07
3.84791e-07
3.85551e-07
3.87386e-07
3.9086e-07
3.98854e-07
4.10931e-07
6.0294e-08
2.4455e-08
4.03755e-08
4.10933e-07
3.98854e-07
3.9086e-07
3.87386e-07
3.85551e-07
3.84791e-07
3.84553e-07
3.85238e-07
3.86945e-07
3.90148e-07
3.94901e-07
3.98854e-07
3.8715e-07
4.73313e-08
5.82169e-08
4.33184e-08
4.1273e-08
4.91764e-08
4.69486e-08
3.8715e-07
3.98854e-07
3.94898e-07
3.90148e-07
3.86945e-07
3.85238e-07
3.84553e-07
3.84325e-07
3.84766e-07
3.85845e-07
3.87774e-07
3.90148e-07
3.9086e-07
3.85764e-07
3.87471e-07
3.94793e-07
3.92496e-07
3.92497e-07
3.94791e-07
3.87471e-07
3.85764e-07
3.9086e-07
3.90148e-07
3.87774e-07
3.85845e-07
3.84766e-07
3.84325e-07
3.84155e-07
3.84374e-07
3.8491e-07
3.85846e-07
3.86945e-07
3.87387e-07
3.86579e-07
3.87975e-07
3.90346e-07
3.9067e-07
3.90671e-07
3.90346e-07
3.87975e-07
3.86579e-07
3.87387e-07
3.86945e-07
3.85846e-07
3.8491e-07
3.84374e-07
3.84155e-07
3.84061e-07
3.84151e-07
3.84375e-07
3.84767e-07
3.8524e-07
3.8555e-07
3.85736e-07
3.86624e-07
3.87799e-07
3.88262e-07
3.88262e-07
3.87799e-07
3.86624e-07
3.85736e-07
3.8555e-07
3.8524e-07
3.84767e-07
3.84375e-07
3.84151e-07
3.84061e-07
3.84024e-07
3.84063e-07
3.84159e-07
3.84332e-07
3.84569e-07
3.84819e-07
3.85146e-07
3.85764e-07
3.86497e-07
3.86906e-07
3.86906e-07
3.86497e-07
3.85764e-07
3.85146e-07
3.84819e-07
3.84569e-07
3.84332e-07
3.84159e-07
3.84063e-07
3.84024e-07
3.84019e-07
3.84056e-07
3.84146e-07
3.84315e-07
3.84546e-07
3.84792e-07
3.85116e-07
3.85733e-07
3.86464e-07
3.86861e-07
3.86861e-07
3.86464e-07
3.85733e-07
3.85116e-07
3.84792e-07
3.84546e-07
3.84315e-07
3.84146e-07
3.84056e-07
3.84019e-07
3.84056e-07
3.84146e-07
3.84365e-07
3.84755e-07
3.85238e-07
3.85569e-07
3.85778e-07
3.86694e-07
3.87893e-07
3.88365e-07
3.88365e-07
3.87893e-07
3.86694e-07
3.85778e-07
3.85569e-07
3.85239e-07
3.84754e-07
3.84365e-07
3.84146e-07
3.84056e-07
3.84146e-07
3.84365e-07
3.84898e-07
3.85849e-07
3.86986e-07
3.8746e-07
3.86672e-07
3.88108e-07
3.90506e-07
3.90839e-07
3.90838e-07
3.90503e-07
3.88107e-07
3.86673e-07
3.87459e-07
3.86987e-07
3.85848e-07
3.84898e-07
3.84365e-07
3.84146e-07
3.84313e-07
3.84755e-07
3.85849e-07
3.87822e-07
3.90272e-07
3.91025e-07
3.85874e-07
3.87554e-07
3.94809e-07
3.92467e-07
3.92469e-07
3.9481e-07
3.87554e-07
3.85874e-07
3.91023e-07
3.90272e-07
3.87822e-07
3.85848e-07
3.84754e-07
3.84313e-07
3.84542e-07
3.85238e-07
3.86986e-07
3.90272e-07
3.95113e-07
3.99019e-07
3.87162e-07
4.79825e-08
4.94502e-08
4.88401e-08
4.80159e-08
4.95081e-08
4.82675e-08
3.87164e-07
3.99019e-07
3.95113e-07
3.90272e-07
3.86987e-07
3.85239e-07
3.84542e-07
3.84787e-07
3.85567e-07
3.8746e-07
3.91025e-07
3.99019e-07
4.108e-07
5.01018e-08
5.48163e-08
2.37591e-08
4.07291e-08
4.5931e-08
4.10799e-07
3.99018e-07
3.91024e-07
3.87459e-07
3.85567e-07
3.84787e-07
3.85106e-07
3.85773e-07
3.86673e-07
3.85874e-07
3.87162e-07
5.01018e-08
3.41638e-08
6.01838e-08
3.87163e-07
3.85875e-07
3.86675e-07
3.85773e-07
3.85106e-07
3.85714e-07
3.86688e-07
3.8811e-07
3.87554e-07
4.79828e-08
5.48163e-08
2.33429e-08
3.69059e-08
2.43959e-08
4.73084e-08
3.87554e-07
3.88111e-07
3.86688e-07
3.85714e-07
3.86437e-07
3.8789e-07
3.90505e-07
3.94809e-07
4.94505e-08
2.37591e-08
5.47175e-08
4.30384e-07
4.30689e-07
5.13048e-08
2.4187e-08
5.81174e-08
3.9481e-07
3.90507e-07
3.8789e-07
3.86437e-07
3.86835e-07
3.88364e-07
3.90839e-07
3.92466e-07
4.88402e-08
2.33463e-08
4.31085e-07
4.32726e-07
4.32767e-07
4.30986e-07
6.25678e-08
4.32194e-08
3.92467e-07
3.9084e-07
3.88364e-07
3.86835e-07
3.86835e-07
3.88364e-07
3.90839e-07
3.92468e-07
4.80163e-08
3.67224e-08
4.29648e-07
4.31468e-07
4.31431e-07
4.29874e-07
5.05043e-08
4.11714e-08
3.92469e-07
3.9084e-07
3.88363e-07
3.86835e-07
3.86437e-07
3.8789e-07
3.90504e-07
3.9481e-07
4.95081e-08
5.12402e-08
4.30978e-07
4.30528e-07
5.20136e-08
4.70283e-08
4.90803e-08
3.94811e-07
3.90507e-07
3.87885e-07
3.86437e-07
3.85714e-07
3.86688e-07
3.8811e-07
3.87554e-07
4.82675e-08
4.07291e-08
2.43419e-08
6.26632e-08
5.04037e-08
4.70233e-08
4.69022e-08
3.87555e-07
3.8811e-07
3.86684e-07
3.85717e-07
3.85106e-07
3.85773e-07
3.86673e-07
3.85874e-07
3.87162e-07
4.5931e-08
4.02918e-08
3.87162e-07
3.85874e-07
3.86673e-07
3.85773e-07
3.85106e-07
3.84787e-07
3.85567e-07
3.8746e-07
3.91025e-07
3.99019e-07
4.108e-07
6.01838e-08
2.43959e-08
4.02918e-08
4.108e-07
3.99019e-07
3.91025e-07
3.8746e-07
3.85567e-07
3.84787e-07
3.84542e-07
3.85238e-07
3.86986e-07
3.90272e-07
3.95113e-07
3.99019e-07
3.87162e-07
4.73084e-08
5.81174e-08
4.32194e-08
4.11709e-08
4.90804e-08
4.69022e-08
3.87162e-07
3.99019e-07
3.95113e-07
3.90272e-07
3.86986e-07
3.85238e-07
3.84542e-07
3.84313e-07
3.84755e-07
3.85849e-07
3.87822e-07
3.90272e-07
3.91025e-07
3.85874e-07
3.87554e-07
3.9481e-07
3.92468e-07
3.92468e-07
3.94808e-07
3.87555e-07
3.85874e-07
3.91025e-07
3.90272e-07
3.87822e-07
3.85849e-07
3.84755e-07
3.84313e-07
3.84146e-07
3.84365e-07
3.84898e-07
3.85849e-07
3.86986e-07
3.8746e-07
3.86672e-07
3.88108e-07
3.90506e-07
3.90839e-07
3.9084e-07
3.90505e-07
3.88107e-07
3.86672e-07
3.8746e-07
3.86986e-07
3.85849e-07
3.84898e-07
3.84365e-07
3.84146e-07
3.84056e-07
3.84146e-07
3.84365e-07
3.84755e-07
3.85238e-07
3.85569e-07
3.85778e-07
3.86694e-07
3.87893e-07
3.88364e-07
3.88365e-07
3.87893e-07
3.86694e-07
3.85778e-07
3.85569e-07
3.85238e-07
3.84755e-07
3.84365e-07
3.84146e-07
3.84056e-07
3.84019e-07
3.84056e-07
3.84146e-07
3.84315e-07
3.84546e-07
3.84792e-07
3.85116e-07
3.85733e-07
3.86464e-07
3.86861e-07
3.86861e-07
3.86464e-07
3.85733e-07
3.85116e-07
3.84792e-07
3.84546e-07
3.84315e-07
3.84146e-07
3.84056e-07
3.84019e-07
3.84019e-07
3.84056e-07
3.84149e-07
3.84319e-07
3.84564e-07
3.84826e-07
3.85174e-07
3.85822e-07
3.86588e-07
3.87015e-07
3.87015e-07
3.86588e-07
3.85822e-07
3.85174e-07
3.84826e-07
3.84564e-07
3.84319e-07
3.84149e-07
3.84056e-07
3.84019e-07
3.84056e-07
3.84149e-07
3.84374e-07
3.84779e-07
3.8529e-07
3.85642e-07
3.85877e-07
3.86835e-07
3.88075e-07
3.88575e-07
3.88575e-07
3.88075e-07
3.86835e-07
3.85877e-07
3.85642e-07
3.8529e-07
3.84779e-07
3.84374e-07
3.84149e-07
3.84056e-07
3.84149e-07
3.84374e-07
3.84929e-07
3.85914e-07
3.87096e-07
3.87596e-07
3.86792e-07
3.88238e-07
3.90638e-07
3.90969e-07
3.90968e-07
3.90635e-07
3.88237e-07
3.86793e-07
3.87594e-07
3.87096e-07
3.85914e-07
3.84929e-07
3.84374e-07
3.84149e-07
3.84319e-07
3.84779e-07
3.85914e-07
3.87949e-07
3.90447e-07
3.91152e-07
3.85804e-07
3.87327e-07
3.94452e-07
3.92037e-07
3.92039e-07
3.94454e-07
3.87328e-07
3.85804e-07
3.9115e-07
3.90447e-07
3.87949e-07
3.85914e-07
3.84779e-07
3.84319e-07
3.84564e-07
3.8529e-07
3.87096e-07
3.90447e-07
3.95268e-07
3.98905e-07
3.86896e-07
4.797e-08
4.94298e-08
4.88166e-08
4.79924e-08
4.94855e-08
4.82523e-08
3.86897e-07
3.98906e-07
3.95268e-07
3.90447e-07
3.87096e-07
3.8529e-07
3.84564e-07
3.84824e-07
3.85642e-07
3.87596e-07
3.91152e-07
3.98905e-07
4.10423e-07
5.00785e-08
5.47967e-08
2.37539e-08
4.07185e-08
4.5911e-08
4.10423e-07
3.98905e-07
3.91151e-07
3.87594e-07
3.85642e-07
3.84824e-07
3.85171e-07
3.85877e-07
3.86792e-07
3.85804e-07
3.86896e-07
5.00785e-08
3.41561e-08
6.01624e-08
3.86896e-07
3.85805e-07
3.86793e-07
3.85877e-07
3.85171e-07
3.85819e-07
3.86835e-07
3.88237e-07
3.87328e-07
4.797e-08
5.47967e-08
2.3342e-08
3.6905e-08
2.43902e-08
4.72892e-08
3.87327e-07
3.88238e-07
3.86835e-07
3.85819e-07
3.86579e-07
3.88076e-07
3.90635e-07
3.94453e-07
4.94301e-08
2.37539e-08
5.47169e-08
4.30534e-07
4.30684e-07
5.13138e-08
2.41845e-08
5.80976e-08
3.94452e-07
3.90638e-07
3.88074e-07
3.8658e-07
3.87002e-07
3.88575e-07
3.90968e-07
3.92038e-07
4.88167e-08
2.33498e-08
4.31164e-07
4.32415e-07
4.32417e-07
4.31035e-07
6.25436e-08
4.32047e-08
3.92037e-07
3.90969e-07
3.88574e-07
3.87003e-07
3.87002e-07
3.88576e-07
3.90968e-07
3.92039e-07
4.79925e-08
3.6546e-08
4.29736e-07
4.31128e-07
4.31106e-07
4.29899e-07
5.05577e-08
4.11566e-08
3.92039e-07
3.90969e-07
3.88573e-07
3.87003e-07
3.86579e-07
3.88076e-07
3.90634e-07
3.94454e-07
4.94855e-08
5.12201e-08
4.3092e-07
4.30708e-07
5.20197e-08
4.69573e-08
4.90655e-08
3.94454e-07
3.90639e-07
3.8807e-07
3.8658e-07
3.85819e-07
3.86835e-07
3.88237e-07
3.87328e-07
4.82523e-08
4.07185e-08
2.44907e-08
6.26714e-08
5.04235e-08
4.70928e-08
4.68829e-08
3.87328e-07
3.88239e-07
3.8683e-07
3.85821e-07
3.85171e-07
3.85877e-07
3.86792e-07
3.85804e-07
3.86896e-07
4.59107e-08
4.0281e-08
3.86896e-07
3.85804e-07
3.86793e-07
3.85876e-07
3.85171e-07
3.84824e-07
3.85642e-07
3.87596e-07
3.91152e-07
3.98905e-07
4.10423e-07
6.01624e-08
2.43902e-08
4.0281e-08
4.10423e-07
3.98905e-07
3.91152e-07
3.87596e-07
3.85642e-07
3.84824e-07
3.84564e-07
3.8529e-07
3.87096e-07
3.90447e-07
3.95268e-07
3.98905e-07
3.86896e-07
4.72892e-08
5.80976e-08
4.32047e-08
4.11563e-08
4.90653e-08
4.68829e-08
3.86896e-07
3.98905e-07
3.95268e-07
3.90447e-07
3.87096e-07
3.8529e-07
3.84564e-07
3.84319e-07
3.84779e-07
3.85914e-07
3.87949e-07
3.90447e-07
3.91152e-07
3.85804e-07
3.87327e-07
3.94453e-07
3.92038e-07
3.92039e-07
3.94453e-07
3.87328e-07
3.85804e-07
3.91152e-07
3.90447e-07
3.87949e-07
3.85914e-07
3.84779e-07
3.84319e-07
3.84149e-07
3.84374e-07
3.84929e-07
3.85914e-07
3.87096e-07
3.87596e-07
3.86792e-07
3.88238e-07
3.90638e-07
3.90969e-07
3.9097e-07
3.90637e-07
3.88237e-07
3.86792e-07
3.87596e-07
3.87096e-07
3.85914e-07
3.84929e-07
3.84374e-07
3.84149e-07
3.84056e-07
3.84149e-07
3.84374e-07
3.84779e-07
3.8529e-07
3.85642e-07
3.85877e-07
3.86835e-07
3.88075e-07
3.88575e-07
3.88575e-07
3.88075e-07
3.86835e-07
3.85877e-07
3.85642e-07
3.8529e-07
3.84779e-07
3.84374e-07
3.84149e-07
3.84056e-07
3.84019e-07
3.84056e-07
3.84149e-07
3.84319e-07
3.84564e-07
3.84826e-07
3.85174e-07
3.85822e-07
3.86588e-07
3.87015e-07
3.87015e-07
3.86588e-07
3.85822e-07
3.85174e-07
3.84826e-07
3.84564e-07
3.84319e-07
3.84149e-07
3.84056e-07
3.84019e-07
3.84022e-07
3.84061e-07
3.84163e-07
3.84349e-07
3.84624e-07
3.84931e-07
3.85344e-07
3.86085e-07
3.86945e-07
3.87434e-07
3.87434e-07
3.86945e-07
3.86085e-07
3.85344e-07
3.84931e-07
3.84624e-07
3.84349e-07
3.84163e-07
3.84061e-07
3.84022e-07
3.84061e-07
3.84158e-07
3.84408e-07
3.84853e-07
3.85427e-07
3.85847e-07
3.86166e-07
3.87238e-07
3.88599e-07
3.89174e-07
3.89174e-07
3.88599e-07
3.87238e-07
3.86166e-07
3.85847e-07
3.85427e-07
3.84853e-07
3.84408e-07
3.84158e-07
3.84061e-07
3.84163e-07
3.84408e-07
3.8502e-07
3.86092e-07
3.87394e-07
3.8799e-07
3.87224e-07
3.88749e-07
3.91234e-07
3.91614e-07
3.91614e-07
3.91233e-07
3.88749e-07
3.87224e-07
3.8799e-07
3.87394e-07
3.86092e-07
3.8502e-07
3.84408e-07
3.84163e-07
3.84349e-07
3.84853e-07
3.86092e-07
3.88304e-07
3.90979e-07
3.91688e-07
3.8598e-07
3.87158e-07
3.93942e-07
3.91367e-07
3.91368e-07
3.93942e-07
3.87157e-07
3.8598e-07
3.91688e-07
3.90979e-07
3.88304e-07
3.86092e-07
3.84853e-07
3.84349e-07
3.84624e-07
3.85427e-07
3.87394e-07
3.90979e-07
3.95914e-07
3.99055e-07
3.86383e-07
4.7927e-08
4.93377e-08
4.8702e-08
4.78737e-08
4.9378e-08
4.81889e-08
3.86383e-07
3.99055e-07
3.95914e-07
3.90979e-07
3.87394e-07
3.85427e-07
3.84624e-07
3.84931e-07
3.85847e-07
3.8799e-07
3.91688e-07
3.99055e-07
4.09386e-07
4.998e-08
5.46923e-08
2.37223e-08
4.06592e-08
4.58101e-08
4.09386e-07
3.99055e-07
3.91688e-07
3.8799e-07
3.85847e-07
3.84931e-07
3.85344e-07
3.86166e-07
3.87224e-07
3.8598e-07
3.86383e-07
4.998e-08
3.41168e-08
6.00526e-08
3.86383e-07
3.8598e-07
3.87224e-07
3.86166e-07
3.85344e-07
3.86085e-07
3.87238e-07
3.88749e-07
3.87157e-07
4.79273e-08
5.46923e-08
2.33766e-08
3.67744e-08
2.4357e-08
4.72017e-08
3.87157e-07
3.88749e-07
3.87238e-07
3.86085e-07
3.86944e-07
3.886e-07
3.91233e-07
3.93943e-07
4.93377e-08
2.37227e-08
5.47877e-08
4.30239e-07
4.30103e-07
5.13432e-08
2.43629e-08
5.79864e-08
3.93942e-07
3.91234e-07
3.88599e-07
3.86945e-07
3.87431e-07
3.89176e-07
3.91613e-07
3.91367e-07
4.87018e-08
2.33753e-08
4.3069e-07
4.2993e-07
4.29903e-07
4.30713e-07
6.26588e-08
4.31179e-08
3.91367e-07
3.91614e-07
3.89175e-07
3.87433e-07
3.87431e-07
3.89177e-07
3.91613e-07
3.91369e-07
4.78738e-08
3.67687e-08
4.29621e-07
4.28725e-07
4.28694e-07
4.29586e-07
5.05726e-08
4.1067e-08
3.91369e-07
3.91614e-07
3.89174e-07
3.87432e-07
3.86944e-07
3.886e-07
3.91232e-07
3.93943e-07
4.93779e-08
5.13554e-08
4.3042e-07
4.30335e-07
5.20573e-08
4.70639e-08
4.89792e-08
3.93945e-07
3.91236e-07
3.88595e-07
3.86947e-07
3.86085e-07
3.87238e-07
3.88749e-07
3.87157e-07
4.81889e-08
4.06592e-08
2.42134e-08
6.26634e-08
5.05513e-08
4.70859e-08
4.67854e-08
3.87158e-07
3.88751e-07
3.87231e-07
3.86086e-07
3.85344e-07
3.86166e-07
3.87224e-07
3.8598e-07
3.86383e-07
4.58101e-08
4.02186e-08
3.86383e-07
3.8598e-07
3.87227e-07
3.86164e-07
3.85344e-07
3.84931e-07
3.85847e-07
3.8799e-07
3.91688e-07
3.99055e-07
4.09386e-07
6.00526e-08
2.4357e-08
4.02186e-08
4.09386e-07
3.99055e-07
3.91688e-07
3.8799e-07
3.85847e-07
3.84931e-07
3.84624e-07
3.85427e-07
3.87394e-07
3.90979e-07
3.95914e-07
3.99055e-07
3.86383e-07
4.72017e-08
5.79864e-08
4.31179e-08
4.10665e-08
4.89792e-08
4.67854e-08
3.86383e-07
3.99055e-07
3.95914e-07
3.90979e-07
3.87394e-07
3.85427e-07
3.84624e-07
3.84349e-07
3.84853e-07
3.86092e-07
3.88304e-07
3.90979e-07
3.91688e-07
3.8598e-07
3.87157e-07
3.93942e-07
3.91367e-07
3.91368e-07
3.93942e-07
3.87157e-07
3.8598e-07
3.91688e-07
3.90979e-07
3.88304e-07
3.86092e-07
3.84853e-07
3.84349e-07
3.84163e-07
3.84408e-07
3.8502e-07
3.86092e-07
3.87394e-07
3.8799e-07
3.87224e-07
3.88749e-07
3.91235e-07
3.91614e-07
3.91615e-07
3.91235e-07
3.88749e-07
3.87224e-07
3.8799e-07
3.87394e-07
3.86092e-07
3.8502e-07
3.84408e-07
3.84163e-07
3.84061e-07
3.84158e-07
3.84408e-07
3.84853e-07
3.85427e-07
3.85847e-07
3.86166e-07
3.87238e-07
3.88599e-07
3.89174e-07
3.89174e-07
3.88599e-07
3.87238e-07
3.86166e-07
3.85847e-07
3.85427e-07
3.84853e-07
3.84408e-07
3.84158e-07
3.84061e-07
3.84022e-07
3.84061e-07
3.84163e-07
3.84349e-07
3.84624e-07
3.84931e-07
3.85344e-07
3.86085e-07
3.86945e-07
3.87434e-07
3.87434e-07
3.86945e-07
3.86085e-07
3.85344e-07
3.84931e-07
3.84624e-07
3.84349e-07
3.84163e-07
3.84061e-07
3.84022e-07
3.84026e-07
3.84068e-07
3.84186e-07
3.84406e-07
3.84732e-07
3.85123e-07
3.85658e-07
3.86574e-07
3.87623e-07
3.88232e-07
3.88232e-07
3.87622e-07
3.86573e-07
3.85658e-07
3.85123e-07
3.84732e-07
3.84406e-07
3.84186e-07
3.84068e-07
3.84026e-07
3.84068e-07
3.8418e-07
3.84467e-07
3.84985e-07
3.85674e-07
3.86248e-07
3.86758e-07
3.8811e-07
3.89777e-07
3.90547e-07
3.90548e-07
3.89778e-07
3.88111e-07
3.86758e-07
3.86248e-07
3.85674e-07
3.84985e-07
3.84467e-07
3.8418e-07
3.84068e-07
3.84186e-07
3.84467e-07
3.85174e-07
3.86428e-07
3.88009e-07
3.88912e-07
3.88417e-07
3.90389e-07
3.93377e-07
3.94062e-07
3.94062e-07
3.93376e-07
3.90389e-07
3.88417e-07
3.88912e-07
3.88009e-07
3.86428e-07
3.85174e-07
3.84467e-07
3.84186e-07
3.84406e-07
3.84985e-07
3.86428e-07
3.8903e-07
3.92283e-07
3.93502e-07
3.87843e-07
3.893e-07
3.96311e-07
3.9395e-07
3.93952e-07
3.96312e-07
3.89301e-07
3.87844e-07
3.93502e-07
3.92283e-07
3.8903e-07
3.86428e-07
3.84985e-07
3.84406e-07
3.84732e-07
3.85674e-07
3.88009e-07
3.92283e-07
3.98185e-07
4.01915e-07
3.88304e-07
4.79661e-08
4.90859e-08
4.83021e-08
4.74608e-08
4.90213e-08
4.81052e-08
3.88304e-07
4.01915e-07
3.98185e-07
3.92283e-07
3.88009e-07
3.85674e-07
3.84732e-07
3.85123e-07
3.86248e-07
3.88912e-07
3.93502e-07
4.01915e-07
4.10651e-07
4.9724e-08
5.37921e-08
2.31543e-08
3.98526e-08
4.54057e-08
4.10651e-07
4.01915e-07
3.93502e-07
3.88912e-07
3.86248e-07
3.85123e-07
3.85658e-07
3.86758e-07
3.88417e-07
3.87843e-07
3.88304e-07
4.9724e-08
3.35964e-08
5.91302e-08
3.88304e-07
3.87844e-07
3.88417e-07
3.86758e-07
3.85658e-07
3.86573e-07
3.88111e-07
3.90389e-07
3.893e-07
4.79661e-08
5.37921e-08
2.38037e-08
3.74204e-08
2.37502e-08
4.69712e-08
3.89302e-07
3.90389e-07
3.8811e-07
3.86574e-07
3.87622e-07
3.89778e-07
3.93377e-07
3.96311e-07
4.90856e-08
2.31543e-08
5.53455e-08
4.23077e-07
4.22922e-07
5.15045e-08
2.47572e-08
5.70632e-08
3.96311e-07
3.93377e-07
3.89777e-07
3.87623e-07
3.88232e-07
3.90546e-07
3.94064e-07
3.93949e-07
4.83022e-08
2.38026e-08
4.23474e-07
4.20127e-07
4.20105e-07
4.23524e-07
6.311e-08
4.20917e-08
3.9395e-07
3.94064e-07
3.90546e-07
3.88232e-07
3.88232e-07
3.90546e-07
3.94062e-07
3.93953e-07
4.74606e-08
3.7424e-08
4.22596e-07
4.19154e-07
4.19153e-07
4.22652e-07
5.08652e-08
3.99613e-08
3.93954e-07
3.94062e-07
3.90546e-07
3.88232e-07
3.87622e-07
3.89778e-07
3.93375e-07
3.96313e-07
4.90213e-08
5.15155e-08
4.23304e-07
4.23165e-07
5.19246e-08
4.75446e-08
4.80485e-08
3.96314e-07
3.93375e-07
3.89776e-07
3.87623e-07
3.86573e-07
3.88111e-07
3.90389e-07
3.89299e-07
4.81058e-08
3.98526e-08
2.4754e-08
6.31459e-08
5.0716e-08
4.7561e-08
4.64041e-08
3.89301e-07
3.9039e-07
3.88108e-07
3.86574e-07
3.85658e-07
3.86758e-07
3.88417e-07
3.87843e-07
3.88304e-07
4.54057e-08
3.94425e-08
3.88304e-07
3.87843e-07
3.88418e-07
3.86757e-07
3.85658e-07
3.85123e-07
3.86248e-07
3.88912e-07
3.93502e-07
4.01915e-07
4.10651e-07
5.91302e-08
2.37502e-08
3.94425e-08
4.10651e-07
4.01915e-07
3.93502e-07
3.88912e-07
3.86248e-07
3.85123e-07
3.84732e-07
3.85674e-07
3.88009e-07
3.92283e-07
3.98185e-07
4.01915e-07
3.88304e-07
4.69712e-08
5.70632e-08
4.20917e-08
3.9961e-08
4.80485e-08
4.64041e-08
3.88304e-07
4.01915e-07
3.98185e-07
3.92283e-07
3.88009e-07
3.85674e-07
3.84732e-07
3.84406e-07
3.84985e-07
3.86428e-07
3.8903e-07
3.92283e-07
3.93502e-07
3.87844e-07
3.89302e-07
3.96311e-07
3.9395e-07
3.93951e-07
3.96311e-07
3.89301e-07
3.87844e-07
3.93502e-07
3.92283e-07
3.8903e-07
3.86428e-07
3.84985e-07
3.84406e-07
3.84186e-07
3.84467e-07
3.85174e-07
3.86428e-07
3.88009e-07
3.88912e-07
3.88417e-07
3.90389e-07
3.93377e-07
3.94064e-07
3.94065e-07
3.93377e-07
3.90389e-07
3.88417e-07
3.88912e-07
3.88009e-07
3.86428e-07
3.85174e-07
3.84467e-07
3.84186e-07
3.84068e-07
3.8418e-07
3.84467e-07
3.84985e-07
3.85674e-07
3.86248e-07
3.86758e-07
3.8811e-07
3.89777e-07
3.90547e-07
3.90548e-07
3.89778e-07
3.88111e-07
3.86758e-07
3.86248e-07
3.85674e-07
3.84985e-07
3.84467e-07
3.8418e-07
3.84068e-07
3.84026e-07
3.84068e-07
3.84186e-07
3.84406e-07
3.84732e-07
3.85123e-07
3.85658e-07
3.86574e-07
3.87623e-07
3.88232e-07
3.88232e-07
3.87622e-07
3.86573e-07
3.85658e-07
3.85123e-07
3.84732e-07
3.84406e-07
3.84186e-07
3.84068e-07
3.84026e-07
3.84031e-07
3.84077e-07
3.84208e-07
3.84462e-07
3.84846e-07
3.85324e-07
3.85996e-07
3.87111e-07
3.88377e-07
3.89125e-07
3.89125e-07
3.88375e-07
3.8711e-07
3.85996e-07
3.85324e-07
3.84846e-07
3.84462e-07
3.84208e-07
3.84077e-07
3.84031e-07
3.84077e-07
3.84204e-07
3.84527e-07
3.85128e-07
3.85948e-07
3.86707e-07
3.87463e-07
3.89187e-07
3.91274e-07
3.92312e-07
3.92312e-07
3.91276e-07
3.89188e-07
3.87463e-07
3.86707e-07
3.85948e-07
3.85128e-07
3.84527e-07
3.84204e-07
3.84077e-07
3.84208e-07
3.84527e-07
3.85332e-07
3.86803e-07
3.88735e-07
3.90089e-07
3.90059e-07
3.92854e-07
3.96811e-07
3.98086e-07
3.98085e-07
3.96809e-07
3.92854e-07
3.90059e-07
3.90089e-07
3.88735e-07
3.86803e-07
3.85332e-07
3.84527e-07
3.84208e-07
3.84462e-07
3.85128e-07
3.86803e-07
3.899e-07
3.94004e-07
3.96295e-07
3.91723e-07
3.95645e-07
4.05672e-07
4.04975e-07
4.04978e-07
4.05672e-07
3.95645e-07
3.91723e-07
3.96295e-07
3.94004e-07
3.899e-07
3.86803e-07
3.85128e-07
3.84462e-07
3.84845e-07
3.85948e-07
3.88735e-07
3.94004e-07
4.01767e-07
4.08851e-07
3.97388e-07
4.88668e-08
5.00663e-08
4.92518e-08
4.85164e-08
5.00174e-08
4.89142e-08
3.97388e-07
4.08851e-07
4.01767e-07
3.94004e-07
3.88735e-07
3.85948e-07
3.84846e-07
3.85325e-07
3.86707e-07
3.90089e-07
3.96295e-07
4.08851e-07
4.23644e-07
5.08954e-08
5.01548e-08
1.85409e-08
3.48724e-08
4.62595e-08
4.23644e-07
4.08851e-07
3.96295e-07
3.90089e-07
3.86707e-07
3.85324e-07
3.85996e-07
3.87463e-07
3.90059e-07
3.91723e-07
3.97388e-07
5.08954e-08
3.00378e-08
5.52848e-08
3.97388e-07
3.91724e-07
3.90059e-07
3.87463e-07
3.85996e-07
3.8711e-07
3.89188e-07
3.92854e-07
3.95645e-07
4.88668e-08
5.01548e-08
2.51868e-08
3.95256e-08
1.89443e-08
4.81681e-08
3.95645e-07
3.92854e-07
3.89187e-07
3.87111e-07
3.88375e-07
3.91275e-07
3.96811e-07
4.05671e-07
5.00666e-08
1.85409e-08
5.28726e-08
3.96603e-07
3.96581e-07
4.83666e-08
3.42494e-08
5.30461e-08
4.05672e-07
3.96811e-07
3.91274e-07
3.88377e-07
3.89125e-07
3.92311e-07
3.98086e-07
4.04977e-07
4.92516e-08
2.51851e-08
3.96915e-07
4.03247e-07
4.0322e-07
3.96924e-07
5.90283e-08
3.62325e-08
4.04975e-07
3.98087e-07
3.9231e-07
3.89125e-07
3.89125e-07
3.92311e-07
3.98085e-07
4.04979e-07
4.85164e-08
3.95874e-08
3.96392e-07
4.02588e-07
4.02784e-07
3.96384e-07
4.71933e-08
3.36179e-08
4.04978e-07
3.98087e-07
3.92311e-07
3.89125e-07
3.88375e-07
3.91276e-07
3.96808e-07
4.05673e-07
5.00174e-08
4.83847e-08
3.96669e-07
3.96805e-07
4.95247e-08
4.38972e-08
4.32721e-08
4.05673e-07
3.96808e-07
3.91276e-07
3.88375e-07
3.8711e-07
3.89188e-07
3.92853e-07
3.95646e-07
4.89142e-08
3.48724e-08
3.41623e-08
5.90102e-08
4.72094e-08
4.39318e-08
4.73045e-08
3.95646e-07
3.92853e-07
3.89188e-07
3.8711e-07
3.85996e-07
3.87463e-07
3.90059e-07
3.91723e-07
3.97388e-07
4.62595e-08
3.46973e-08
3.97388e-07
3.91723e-07
3.90059e-07
3.87463e-07
3.85996e-07
3.85324e-07
3.86707e-07
3.90089e-07
3.96295e-07
4.08851e-07
4.23644e-07
5.52848e-08
1.89443e-08
3.46973e-08
4.23644e-07
4.08851e-07
3.96295e-07
3.90089e-07
3.86707e-07
3.85325e-07
3.84846e-07
3.85948e-07
3.88735e-07
3.94004e-07
4.01767e-07
4.08851e-07
3.97388e-07
4.81681e-08
5.30461e-08
3.62325e-08
3.36179e-08
4.32721e-08
4.73045e-08
3.97388e-07
4.08851e-07
4.01767e-07
3.94004e-07
3.88735e-07
3.85948e-07
3.84845e-07
3.84462e-07
3.85128e-07
3.86803e-07
3.899e-07
3.94004e-07
3.96295e-07
3.91724e-07
3.95645e-07
4.05672e-07
4.04975e-07
4.04976e-07
4.05671e-07
3.95645e-07
3.91723e-07
3.96295e-07
3.94004e-07
3.899e-07
3.86803e-07
3.85128e-07
3.84462e-07
3.84208e-07
3.84527e-07
3.85332e-07
3.86803e-07
3.88735e-07
3.90089e-07
3.90059e-07
3.92854e-07
3.96811e-07
3.98086e-07
3.98087e-07
3.96811e-07
3.92854e-07
3.90059e-07
3.90089e-07
3.88735e-07
3.86803e-07
3.85332e-07
3.84527e-07
3.84208e-07
3.84077e-07
3.84204e-07
3.84527e-07
3.85128e-07
3.85948e-07
3.86707e-07
3.87463e-07
3.89187e-07
3.91274e-07
3.92313e-07
3.92313e-07
3.91276e-07
3.89188e-07
3.87463e-07
3.86707e-07
3.85948e-07
3.85128e-07
3.84527e-07
3.84204e-07
3.84077e-07
3.84031e-07
3.84077e-07
3.84208e-07
3.84462e-07
3.84846e-07
3.85324e-07
3.85996e-07
3.87111e-07
3.88377e-07
3.89125e-07
3.89125e-07
3.88375e-07
3.8711e-07
3.85996e-07
3.85325e-07
3.84845e-07
3.84462e-07
3.84208e-07
3.84077e-07
3.84031e-07
3.84031e-07
3.84079e-07
3.84212e-07
3.84478e-07
3.84876e-07
3.85376e-07
3.86087e-07
3.87258e-07
3.88584e-07
3.89372e-07
3.89372e-07
3.88585e-07
3.87258e-07
3.86087e-07
3.85376e-07
3.84876e-07
3.84478e-07
3.84212e-07