/*--------------------------------*- C++ -*----------------------------------*\
  =========                 |
  \\      /  F ield         | OpenFOAM: The Open Source CFD Toolbox
   \\    /   O peration     | Website:  https://openfoam.org
    \\  /    A nd           | Version:  11
     \\/     M anipulation  |
\*---------------------------------------------------------------------------*/
FoamFile
{
    format      ascii;
    class       volScalarField;
    location    "0.0001";
    object      p;
}
// * * * * * * * * * * * * * * * * * * * * * * * * * * * * * * * * * * * * * //

dimensions      [1 -1 -2 0 0 0 0];

internalField   nonuniform List<scalar> 
21740
(
244327
244098
243852
243578
243263
242890
242438
241878
241171
240274
239136
237695
235869
233531
230492
226463
221027
213576
203194
188437
244326
244094
243845
243567
243248
242872
242417
241852
241135
240219
239053
237581
235728
233379
230346
226338
220928
213504
203150
188421
244324
244087
243832
243547
243220
242838
242380
241810
241076
240120
238890
237343
235431
233056
230041
226078
220726
213360
203061
188389
244321
244079
243817
243523
243187
242799
242345
241775
241023
240005
238658
236969
234946
232519
229544
225668
220414
213142
202930
188341
244320
244074
243807
243506
243163
242775
242347
241944
241259
240268
238880
237081
234963
231694
228807
225082
219986
212852
202760
188281
244320
244075
243810
243512
243174
242806
242508
242057
241459
234032
231459
227744
224282
219429
212493
202556
188211
244323
244086
243833
243557
243259
243000
242704
227257
223207
218740
212083
202335
188137
244329
244105
243872
243633
243427
243202
218924
218924
225051
222905
218043
211691
202134
188073
244335
244125
243914
243711
243558
243427
218926
218786
218786
218914
218928
221492
217478
211385
201983
188027
244338
244137
243941
243765
243660
218924
218786
218747
218747
218786
218921
220240
217091
211201
201898
188002
244338
244137
243941
243765
243685
218924
218786
218747
218748
218786
218915
219926
217091
211201
201898
188002
244335
244125
243914
243711
243617
218914
218786
218786
218900
218926
220801
217478
211385
201983
188027
244329
244105
243872
243633
243496
243320
218929
218921
218915
218926
222156
218043
211691
202134
188073
244323
244086
243833
243557
243259
243098
226155
223207
218740
212083
202335
188137
244320
244075
243810
243512
243174
242806
242578
242203
230714
227744
224282
219429
212493
202556
188211
244320
244074
243807
243506
243163
242775
242347
241988
241289
240289
238802
236858
234535
231694
228807
225082
219986
212853
202760
188281
244321
244079
243817
243523
243187
242799
242345
241775
241023
240005
238658
236969
234945
232519
229544
225668
220414
213142
202930
188341
244324
244087
243832
243547
243220
242838
242380
241809
241076
240120
238890
237343
235431
233056
230041
226078
220726
213360
203062
188389
244326
244094
243845
243567
243248
242871
242417
241852
241135
240219
239053
237580
235728
233379
230346
226338
220928
213504
203150
188421
244327
244098
243852
243578
243263
242890
242438
241878
241171
240274
239136
237695
235869
233531
230492
226463
221027
213576
203194
188437
244326
244095
243847
243571
243254
242879
242426
241864
241158
240260
239120
237678
235851
233514
230476
226450
221017
213569
203190
188435
244325
244091
243839
243558
243236
242857
242400
241835
241118
240202
239034
237559
235704
233355
230325
226320
220915
213495
203144
188419
244322
244083
243824
243535
243203
242815
242355
241784
241051
240096
238862
237310
235393
233016
230005
226051
220706
213347
203054
188386
244319
244073
243806
243504
243157
242758
242300
241732
240986
239970
238617
236914
234877
232446
229480
225624
220386
213125
202920
188338
244317
244066
243791
243477
243112
242700
242265
241893
241217
240234
238843
237026
234888
231561
228692
225013
219946
212829
202747
188276
244317
244065
243789
243471
243098
242680
242420
241980
241405
233920
231327
227560
224187
219380
212466
202541
188205
244320
244076
243810
243513
243177
242912
242601
227110
223109
218688
212054
202319
188131
244326
244095
243851
243592
243377
243124
218047
218047
224926
222833
218002
211667
202119
188067
244332
244115
243895
243678
243518
243372
218052
217569
217569
218031
218055
221442
217451
211366
201970
188021
244336
244129
243925
243738
243632
218047
217569
217502
217502
217569
218042
220205
217073
211187
201887
187997
244336
244129
243925
243738
243660
218047
217569
217502
217503
217569
218031
219895
217073
211187
201887
187997
244332
244115
243895
243678
243583
218032
217569
217569
218003
218052
220760
217451
211366
201970
188021
244326
244095
243851
243592
243451
243254
218056
218043
218031
218052
222096
218002
211667
202119
188067
244320
244076
243810
243513
243177
243014
226014
223109
218688
212054
202319
188131
244317
244065
243789
243471
243098
242680
242478
242117
230564
227560
224187
219380
212466
202541
188205
244317
244066
243791
243477
243112
242699
242265
241925
241242
240253
238761
236789
234441
231561
228692
225013
219946
212829
202747
188276
244319
244073
243806
243504
243157
242758
242300
241732
240986
239970
238617
236914
234877
232446
229480
225624
220386
213125
202921
188338
244322
244083
243824
243535
243202
242815
242355
241784
241051
240095
238862
237310
235392
233016
230005
226051
220706
213347
203054
188386
244325
244091
243839
243558
243236
242857
242400
241835
241118
240202
239034
237559
235704
233355
230324
226320
220915
213495
203145
188419
244326
244095
243847
243571
243254
242879
242426
241864
241157
240260
239120
237678
235851
233514
230475
226450
221017
213569
203190
188435
244324
244090
243838
243558
243236
242858
242402
241839
241131
240232
239091
237646
235817
233480
230445
226424
220998
213555
203182
188432
244323
244084
243828
243542
243214
242829
242370
241803
241086
240169
238997
237518
235660
233310
230284
226287
220891
213479
203135
188415
244320
244074
243809
243511
243169
242772
242306
241736
241006
240050
238810
237247
235320
232940
229938
226001
220673
213325
203042
188381
244316
244062
243784
243468
243101
242680
242213
241651
240915
239904
238539
236807
234744
232303
229355
225542
220336
213095
202904
188332
244313
244051
243761
243422
243015
242545
242097
241775
241122
240159
238760
236898
234705
231275
228443
224878
219874
212789
202726
188269
244312
244047
243750
243393
242940
242378
242191
241781
241269
233629
230966
227097
223996
219287
212418
202517
188197
244314
244056
243768
243427
243005
242681
242328
226707
222902
218589
212004
202294
188123
244320
244075
243810
243514
243257
242922
215972
215973
224598
222632
217912
211621
202096
188059
244326
244097
243860
243615
243425
243234
215982
215022
215022
215934
215991
221299
217381
211329
201951
188015
244331
244113
243894
243688
243568
215972
215022
214905
214905
215022
215957
220121
217019
211156
201870
187991
244331
244113
243894
243688
243603
215974
215023
214905
214905
215022
215931
219824
217019
211156
201870
187991
244326
244097
243860
243615
243507
215935
215022
215022
215867
215982
220652
217381
211329
201951
188015
244320
244075
243810
243514
243343
243082
215991
215958
215931
215983
221920
217912
211621
202096
188059
244314
244056
243768
243427
243004
242794
225642
222902
218589
212004
202294
188123
244312
244047
243750
243393
242940
242378
242215
241891
230154
227097
223996
219287
212418
202517
188197
244313
244051
243761
243422
243015
242545
242097
241769
241124
240171
238670
236635
234202
231275
228443
224878
219874
212790
202726
188269
244316
244062
243784
243468
243101
242680
242213
241651
240915
239904
238539
236807
234744
232303
229355
225542
220336
213095
202904
188332
244320
244074
243809
243511
243169
242771
242306
241736
241005
240050
238810
237247
235319
232940
229938
226001
220673
213325
203042
188382
244323
244084
243828
243542
243214
242829
242370
241803
241086
240168
238997
237518
235659
233310
230284
226287
220891
213479
203135
188415
244324
244090
243838
243558
243236
242857
242402
241839
241131
240232
239091
237646
235817
233480
230445
226424
220998
213555
203182
188432
244322
244082
243825
243539
243211
242828
242369
241804
241095
240194
239050
237603
235771
233435
230404
226391
220972
213537
203171
188428
244320
244075
243812
243519
243183
242792
242328
241759
241042
240123
238948
237462
235599
233250
230230
226244
220859
213457
203122
188411
244316
244063
243788
243479
243123
242713
242241
241671
240944
239988
238740
237162
235222
232840
229850
225936
220628
213297
203026
188376
244311
244047
243756
243420
243026
242574
242094
241541
240820
239816
238434
236661
234562
232105
229186
225435
220271
213056
202883
188325
244307
244031
243721
243348
242882
242317
241846
241592
240977
240051
238640
236702
234412
230823
228051
224701
219781
212739
202700
188261
244305
244023
243699
243288
242698
241826
241757
241389
241015
233043
230254
226237
223772
219171
212358
202487
188187
244307
244029
243711
243310
242740
242237
241803
225921
222628
218460
211941
202264
188113
244312
244049
243756
243408
243070
242522
212644
212645
223930
222301
217794
211563
202069
188051
244319
244074
243813
243529
243280
242968
212656
211481
211481
212603
212664
221066
217288
211282
201929
188009
244324
244091
243853
243621
243475
212644
211482
211392
211392
211481
212625
220000
216947
211118
201853
187987
244324
244091
243853
243621
243523
212646
211482
211392
211392
211481
212597
219723
216947
211118
201853
187987
244319
244074
243813
243529
243393
212603
211482
211481
212528
212655
220488
217288
211282
201929
188009
244312
244049
243756
243408
243175
242742
212664
212626
212597
212654
221631
217794
211563
202069
188051
244307
244029
243711
243310
242740
242368
224894
222628
218460
211941
202264
188113
244305
244023
243699
243288
242698
241826
241707
241445
229344
226237
223772
219171
212358
202487
188187
244307
244031
243721
243348
242882
242316
241845
241507
240931
240051
238538
236383
233777
230822
228051
224701
219781
212739
202701
188261
244311
244047
243756
243420
243026
242574
242094
241541
240820
239816
238434
236661
234562
232105
229186
225435
220271
213056
202883
188325
244316
244063
243788
243479
243123
242713
242241
241671
240943
239988
238740
237162
235222
232839
229850
225936
220628
213297
203026
188376
244320
244075
243812
243519
243183
242792
242327
241759
241042
240123
238947
237462
235599
233250
230230
226244
220859
213457
203122
188411
244322
244082
243825
243539
243211
242828
242369
241804
241095
240194
239050
237602
235771
233435
230404
226391
220972
213537
203171
188428
244319
244073
243809
243516
243182
242793
242329
241762
241051
240149
239002
237551
235718
233383
230357
226351
220942
213516
203158
188424
244316
244065
243794
243492
243147
242748
242278
241708
240990
240069
238889
237398
235530
233182
230169
226195
220823
213432
203107
188405
244312
244049
243764
243443
243072
242648
242168
241597
240872
239916
238660
237067
235115
232731
229756
225866
220579
213265
203007
188369
244306
244029
243723
243367
242946
242464
241970
241422
240715
239718
238319
236505
234372
231905
229021
225325
220202
213015
202860
188317
244300
244008
243677
243270
242751
242114
241600
241390
240814
239928
238504
236479
234081
230397
227736
224528
219686
212687
202673
188252
244296
243995
243643
243181
242492
241476
241282
240933
240702
232331
229457
225724
223531
219054
212298
202457
188178
244298
243999
243649
243188
242485
241762
241240
225045
222363
218334
211880
202236
188105
244303
244020
243697
243296
242862
242058
209319
209317
223152
221954
217680
211513
202047
188046
244311
244046
243760
243437
243115
242633
209322
208615
208615
209316
209321
220816
217200
211247
201917
188007
244316
244065
243806
243547
243371
209319
208616
208612
208612
208615
209318
219865
216883
211095
201846
187987
244316
244065
243806
243547
243431
209319
208616
208612
208612
208614
209311
219610
216883
211095
201846
187987
244311
244046
243760
243437
243264
209317
208615
208615
209301
209321
220308
217200
211247
201917
188007
244303
244020
243697
243296
242986
242330
209322
209318
209312
209321
221324
217680
211513
202047
188046
244298
243999
243649
243188
242485
241884
224045
222363
218334
211880
202236
188105
244296
243995
243643
243181
242492
241476
241163
240941
228476
225724
223531
219054
212298
202457
188178
244300
244008
243677
243270
242751
242114
241600
241209
240708
239915
238389
236090
233262
230396
227736
224528
219686
212687
202673
188252
244306
244029
243723
243367
242946
242464
241970
241422
240715
239717
238318
236505
234372
231905
229021
225325
220202
213015
202861
188317
244312
244049
243764
243443
243072
242648
242168
241597
240872
239916
238660
237067
235115
232731
229756
225866
220579
213265
203007
188369
244316
244065
243794
243492
243147
242748
242278
241708
240990
240069
238889
237397
235530
233182
230169
226195
220823
213433
203107
188405
244319
244073
243809
243516
243182
242793
242329
241762
241051
240149
239002
237551
235718
233383
230357
226351
220942
213516
203158
188424
244315
244062
243791
243491
243150
242754
242286
241716
241003
240099
238949
237495
235661
233327
230307
226309
220909
213492
203144
188418
244313
244053
243774
243463
243109
242702
242226
241653
240934
240011
238827
237330
235460
233113
230108
226145
220785
213406
203092
188400
244307
244035
243739
243404
243020
242583
242094
241522
240798
239840
238577
236973
235012
232630
229668
225798
220531
213233
202988
188363
244300
244011
243689
243314
242869
242363
241855
241310
240610
239616
238203
236361
234206
231739
228883
225229
220138
212974
202838
188309
244293
243985
243633
243197
242635
241949
241411
241219
240669
239807
238370
236286
233821
230106
227508
224390
219605
212639
202648
188243
244288
243968
243589
243085
242327
241231
241010
240678
240514
231951
229024
225389
223348
218960
212248
202432
188170
244288
243969
243589
243080
242296
241489
240926
224591
222167
218245
211838
202216
188100
244294
243990
243638
243193
242694
241801
206580
206577
222758
221704
217616
211489
202039
188045
244302
244018
243706
243348
242977
242444
206576
206084
206083
206616
206562
220622
217171
211249
201923
188012
244307
244038
243757
243471
243271
206580
206084
206151
206151
206083
206593
219741
216880
211114
201863
187997
244307
244038
243757
243471
243341
206580
206084
206151
206150
206082
206608
219499
216880
211114
201863
187997
244302
244018
243706
243348
243148
206616
206083
206083
206651
206576
220155
217171
211248
201923
188012
244294
243990
243638
243193
242831
242104
206563
206593
206609
206576
221100
217616
211489
202039
188045
244288
243969
243589
243080
242296
241612
223610
222167
218245
211838
202216
188100
244288
243968
243589
243085
242327
241231
240859
240664
228005
225389
223348
218960
212248
202432
188170
244293
243985
243633
243197
242635
241949
241411
240995
240539
239789
238249
235867
232933
230106
227508
224390
219605
212640
202648
188243
244300
244011
243689
243314
242869
242363
241855
241309
240610
239616
238203
236360
234206
231738
228882
225229
220138
212975
202838
188309
244307
244035
243739
243404
243020
242583
242094
241522
240797
239840
238577
236973
235012
232630
229668
225798
220531
213233
202989
188363
244313
244053
243774
243463
243109
242701
242226
241653
240933
240010
238827
237330
235460
233113
230108
226145
220785
213406
203092
188400
244315
244062
243791
243491
243150
242754
242286
241716
241003
240099
238949
237495
235661
233327
230307
226309
220909
213492
203144
188418
244312
244051
243773
243465
243116
242714
242241
241668
240953
240047
238895
237439
235604
233272
230257
226267
220876
213469
203129
188413
244309
244041
243753
243433
243070
242655
242174
241597
240876
239951
238764
237264
235392
233047
230049
226097
220748
213380
203075
188394
244302
244020
243713
243366
242970
242521
242024
241448
240723
239764
238496
236884
234919
232540
229590
225736
220485
213201
202970
188356
244294
243992
243657
243264
242799
242273
241753
241205
240508
239514
238091
236231
234067
231606
228771
225147
220082
212937
202816
188302
244285
243963
243591
243131
242536
241812
241255
241074
240538
239691
238241
236119
233620
229899
227345
224284
219539
212598
202624
188235
244280
243942
243539
243002
242193
241037
240801
240502
240387
231711
228743
225166
223224
218891
212208
202410
188163
244280
243941
243535
242988
242145
241284
240723
224311
222054
218190
211808
202200
188095
244285
243961
243583
243102
242556
241624
204143
204134
222522
221572
217606
211483
202037
188046
244293
243990
243655
243264
242857
242318
204150
203942
203941
204264
203904
220519
217216
211274
201937
188020
244299
244012
243708
243395
243175
204143
203942
204063
204063
203941
204216
219644
216959
211160
201889
188009
244299
244012
243708
243395
243252
204136
203942
204063
204062
203940
204235
219406
216959
211160
201889
188009
244293
243990
243655
243264
243041
204265
203942
203941
204377
204169
220055
217216
211274
201937
188020
244285
243961
243583
243102
242700
241958
203905
204217
204235
204170
220990
217606
211483
202037
188046
244280
243941
243535
242988
242145
241412
223335
222054
218190
211808
202200
188095
244280
243942
243539
243002
242193
241036
240651
240486
227729
225166
223224
218891
212208
202410
188163
244285
243963
243591
243131
242536
241812
241255
240823
240412
239683
238127
235676
232693
229899
227345
224284
219539
212598
202624
188235
244294
243992
243656
243264
242799
242273
241753
241205
240508
239514
238091
236231
234067
231606
228771
225147
220082
212937
202816
188302
244302
244020
243713
243366
242969
242521
242024
241448
240723
239764
238496
236884
234919
232540
229590
225736
220485
213201
202970
188356
244308
244041
243753
243433
243070
242655
242174
241597
240876
239951
238764
237264
235392
233047
230049
226097
220748
213380
203075
188394
244312
244051
243773
243465
243116
242714
242241
241668
240953
240046
238894
237439
235604
233272
230257
226267
220876
213469
203129
188413
244308
244040
243753
243438
243082
242674
242196
241620
240903
239994
238840
237383
235548
233219
230209
226226
220843
213445
203114
188408
244304
244028
243731
243403
243031
242609
242123
241543
240820
239893
238703
237201
235328
232985
229993
226050
220711
213354
203060
188388
244297
244005
243688
243330
242922
242463
241960
241381
240655
239694
238422
236805
234836
232459
229518
225677
220441
213170
202951
188349
244288
243975
243626
243218
242737
242196
241667
241117
240421
239427
237996
236125
233953
231495
228673
225070
220026
212900
202794
188294
244279
243942
243554
243073
242455
241707
241136
240956
240426
239588
238130
235982
233465
229742
227211
224186
219471
212554
202599
188226
244272
243917
243495
242932
242090
240899
240644
240366
240280
201020
201026
201018
231538
228544
224997
223107
218815
212160
202382
188153
244271
243915
243488
242913
242032
241130
240577
201027
201118
201287
201329
201205
201046
201015
224117
221937
218117
211761
202174
188086
244277
243935
243536
243027
242446
241490
201027
201252
201736
202114
202187
201942
201472
201086
222355
221467
217550
211445
202015
188039
244285
243965
243610
243196
242757
242213
201119
201736
202097
202277
202276
202095
202102
201366
201030
220439
217184
211247
201921
188014
244291
243987
243666
243333
243092
201021
201288
202115
202278
202398
202397
202276
202376
201676
201064
219561
216943
211143
201877
188005
244291
243987
243666
243333
243174
201027
201330
202189
202278
202398
202397
202275
202431
201751
201082
219323
216943
211143
201877
188005
244285
243965
243610
243196
242951
201019
201207
201944
202097
202277
202276
202095
202268
201534
201034
219973
217184
211247
201921
188014
244277
243935
243536
243027
242595
241847
201048
201473
202104
202378
202432
202269
201816
201205
201032
220901
217550
211445
202015
188039
244271
243915
243488
242913
242032
241262
201017
201087
201368
201678
201752
201534
201205
201022
223139
221937
218117
211761
202174
188086
244272
243917
243495
242932
242090
240899
240499
240354
201031
201065
201082
201033
201032
227545
224997
223108
218815
212160
202383
188153
244279
243942
243554
243073
242455
241707
241136
240685
240307
239589
238020
235519
232513
229742
227211
224186
219471
212554
202599
188226
244288
243975
243626
243218
242737
242196
241667
241117
240421
239427
237996
236125
233953
231494
228673
225070
220026
212900
202794
188294
244297
244005
243688
243330
242922
242463
241960
241381
240655
239694
238422
236805
234836
232459
229518
225677
220441
213170
202951
188349
244304
244028
243731
243403
243031
242609
242123
241543
240819
239893
238703
237201
235328
232985
229993
226050
220711
213354
203060
188388
244308
244040
243753
243438
243082
242674
242196
241620
240902
239994
238840
237383
235548
233219
230209
226226
220844
213445
203115
188408
244304
244028
243734
243411
243048
242634
242151
241572
240852
239942
238787
237329
235494
233168
230163
226187
220812
213423
203101
188403
244300
244015
243710
243373
242994
242565
242074
241491
240766
239837
238646
237141
235267
232927
229940
226005
220676
213329
203044
188382
244293
243991
243663
243295
242878
242411
241903
241321
240594
239632
238357
236734
234763
232386
229450
225621
220397
213140
202933
188343
244283
243958
243597
243176
242683
242132
241598
241048
240354
239360
237925
236045
233862
231397
228582
224994
219970
212861
202772
188286
244272
243922
243520
243023
242390
241631
241057
240873
240346
239509
238050
235892
233357
229620
227089
224083
219397
212505
202571
188216
244265
243896
243457
242876
242017
240822
240552
240257
240167
231390
228396
224853
222973
218720
212099
202348
188141
244264
243892
243448
242854
241959
241041
240457
223960
221779
218000
211687
202132
188071
244269
243912
243497
242973
242373
241391
201218
201165
222203
221308
217406
211356
201964
188020
244278
243943
243572
243146
242693
242120
201244
201081
201079
201268
201240
220299
217011
211142
201861
187992
244284
243966
243630
243287
243035
201220
201082
201153
201151
201077
201203
219476
216757
211027
201811
187980
244284
243966
243630
243287
243118
201167
201082
201153
201151
201078
201243
219249
216757
211027
201811
187980
244278
243943
243572
243146
242891
201270
201080
201079
201295
201177
219865
217011
211142
201861
187992
244269
243912
243497
242973
242526
241741
201244
201206
201245
201177
220746
217406
211356
201964
188020
244264
243892
243448
242854
241958
241170
222997
221779
218001
211687
202132
188071
244265
243896
243457
242876
242017
240822
240388
240231
227366
224853
222973
218720
212099
202348
188141
244272
243922
243520
243023
242390
241631
241057
240597
240203
239494
237927
235431
232396
229620
227089
224084
219397
212505
202571
188216
244283
243958
243597
243176
242683
242132
241598
241048
240354
239360
237925
236044
233862
231397
228582
224994
219970
212861
202772
188286
244293
243991
243663
243295
242878
242411
241902
241321
240594
239632
238357
236734
234762
232386
229450
225621
220398
213140
202933
188343
244300
244015
243710
243373
242994
242565
242074
241491
240765
239837
238646
237141
235267
232926
229940
226005
220676
213329
203044
188382
244304
244028
243734
243411
243048
242634
242151
241572
240852
239942
238787
237329
235494
233168
230163
226187
220813
213423
203101
188403
244300
244016
243714
243383
243013
242593
242107
241524
240802
239891
238735
237277
235443
233120
230119
226150
220783
213401
203087
188398
244296
244002
243689
243343
242957
242521
242025
241440
240713
239783
238590
237085
235211
232873
229891
225964
220644
213305
203030
188377
244288
243977
243639
243262
242835
242361
241848
241265
240537
239574
238297
236671
234697
232320
229389
225569
220358
213112
202916
188336
244277
243941
243569
243137
242633
242074
241535
240985
240293
239299
237862
235975
233785
231314
228502
224926
219918
212826
202751
188278
244266
243903
243488
242978
242332
241565
240987
240803
240278
239442
237983
235820
233271
229520
226986
223992
219328
212459
202544
188206
244258
243875
243422
242827
241955
240753
240482
240160
240060
231267
228280
224735
222856
218630
212039
202314
188128
244257
243870
243411
242803
241895
240972
240355
223835
221643
217891
211612
202089
188055
244262
243890
243461
242925
242314
241306
200375
200371
222075
221155
217270
211262
201909
187998
244271
243922
243539
243102
242640
242032
200387
200232
200229
200389
200377
220170
216851
211027
201793
187965
244277
243945
243598
243246
242987
200378
200234
200266
200263
200227
200375
219403
216584
210900
201734
187949
244277
243945
243598
243246
243070
200375
200234
200266
200263
200227
200378
219187
216584
210900
201734
187949
244271
243922
243539
243102
242840
200394
200231
200229
200401
200373
219768
216851
211027
201793
187965
244262
243890
243461
242925
242470
241647
200382
200380
200381
200375
220594
217270
211262
201909
187998
244257
243870
243411
242803
241895
241099
222881
221643
217891
211612
202089
188055
244258
243875
243422
242827
241955
240753
240296
240123
227221
224735
222856
218630
212039
202314
188128
244266
243903
243488
242978
242332
241565
240987
240526
240110
239407
237845
235359
232307
229520
226986
223992
219328
212459
202544
188206
244277
243941
243569
243137
242633
242074
241535
240985
240293
239299
237862
235975
233785
231314
228502
224926
219918
212826
202751
188278
244288
243977
243639
243262
242835
242361
241848
241265
240537
239574
238297
236671
234697
232320
229389
225569
220358
213112
202916
188336
244296
244002
243689
243343
242957
242521
242025
241439
240713
239783
238590
237085
235211
232873
229891
225964
220644
213305
203030
188377
244300
244016
243714
243383
243013
242593
242107
241524
240802
239891
238735
237277
235443
233120
230119
226150
220783
213402
203087
188398
244296
244003
243693
243355
242978
242552
242061
241475
240752
239840
238684
237226
235394
233074
230079
226116
220756
213382
203075
188393
244291
243989
243667
243313
242919
242477
241977
241388
240660
239729
238536
237031
235159
232824
229847
225927
220614
213284
203017
188372
244283
243962
243615
243229
242793
242312
241794
241208
240480
239516
238238
236612
234638
232263
229338
225525
220323
213088
202901
188331
244272
243925
243542
243099
242585
242018
241474
240921
240229
239236
237798
235909
233717
231246
228439
224871
219875
212796
202733
188272
244260
243885
243457
242935
242277
241500
240914
240731
240206
239372
237913
235746
233192
229438
226909
223924
219275
212422
202522
188199
244252
243855
243389
242779
241894
240678
240402
240070
239972
231168
228184
224647
222776
218567
211995
202288
188119
244250
243849
243376
242754
241829
240895
240266
223738
221559
217820
211560
202057
188042
244255
243869
243426
242876
242253
241224
199768
199764
221977
221062
217194
211201
201870
187983
244264
243901
243505
243056
242581
241955
199773
199668
199664
199768
199761
220094
216773
210958
201747
187946
244270
243925
243565
243201
242933
199772
199672
199686
199681
199659
199761
219350
216506
210825
201684
187928
244270
243925
243565
243201
243018
199772
199672
199685
199681
199659
199762
219139
216506
210825
201684
187928
244264
243901
243505
243056
242784
199777
199667
199663
199773
199760
219707
216773
210958
201747
187946
244255
243869
243426
242876
242410
241567
199771
199770
199768
199763
220506
217194
211201
201870
187983
244250
243849
243376
242754
241829
241020
222784
221560
217820
211560
202057
188042
244252
243855
243389
242779
241894
240678
240209
240031
227122
224647
222776
218567
211995
202288
188119
244260
243885
243457
242935
242277
241500
240914
240446
240028
239331
237770
235275
232218
229438
226909
223924
219275
212422
202522
188199
244272
243925
243542
243099
242585
242018
241474
240921
240229
239235
237798
235908
233717
231246
228439
224872
219875
212796
202733
188272
244283
243962
243615
243228
242793
242312
241794
241208
240480
239516
238238
236612
234638
232263
229338
225525
220323
213088
202901
188331
244291
243989
243667
243313
242919
242477
241977
241388
240660
239729
238536
237031
235159
232824
229847
225927
220614
213284
203017
188372
244296
244003
243693
243355
242978
242552
242061
241475
240752
239840
238684
237226
235394
233074
230079
226116
220756
213382
203075
188393
244292
243990
243672
243325
242941
242509
242013
241424
240699
239787
238632
237176
235347
233031
230041
226085
220731
213363
203064
188389
244287
243976
243644
243282
242880
242432
241927
241335
240605
239674
238482
236978
235109
232778
229807
225893
220588
213265
203005
188368
244278
243947
243591
243194
242750
242262
241739
241150
240420
239457
238180
236555
234584
232213
229293
225488
220294
213067
202888
188326
244266
243908
243514
243061
242537
241962
241412
240857
240164
239172
237735
235847
233656
231190
228388
224829
219842
212773
202719
188266
244254
243867
243426
242892
242222
241435
240844
240661
240135
239304
237846
235678
233124
229375
226851
223876
219238
212396
202506
188193
244245
243835
243355
242732
241833
240605
240325
239991
239896
231092
228110
224584
222724
218526
211966
202270
188112
244243
243828
243341
242704
241766
240822
240187
223668
221507
217778
211530
202039
188035
244248
243847
243390
242826
242192
241152
199414
199410
221911
221004
217154
211170
201851
187975
244256
243879
243469
243007
242524
241888
199420
199376
199370
199409
199402
220044
216735
210927
201727
187938
244263
243903
243529
243154
242879
199422
199383
199392
199384
199363
199402
219310
216470
210794
201664
187920
244263
243903
243529
243154
242965
199422
199382
199392
199384
199363
199403
219101
216470
210794
201664
187920
244256
243879
243469
243007
242729
199424
199376
199369
199413
199401
219663
216735
210927
201727
187938
244248
243847
243390
242826
242351
241497
199418
199416
199412
199406
220452
217154
211170
201851
187975
244243
243828
243341
242704
241766
240947
222715
221507
217778
211530
202039
188035
244245
243835
243355
242732
241833
240605
240130
239951
227048
224584
222724
218526
211966
202270
188112
244254
243867
243426
242892
242222
241435
240844
240372
239953
239261
237701
235204
232146
229375
226851
223876
219238
212396
202507
188193
244266
243908
243514
243061
242537
241962
241412
240857
240164
239171
237735
235846
233656
231189
228388
224829
219842
212773
202719
188266
244278
243947
243591
243194
242750
242262
241739
241150
240420
239457