/*--------------------------------*- C++ -*----------------------------------*\
  =========                 |
  \\      /  F ield         | OpenFOAM: The Open Source CFD Toolbox
   \\    /   O peration     | Website:  https://openfoam.org
    \\  /    A nd           | Version:  11
     \\/     M anipulation  |
\*---------------------------------------------------------------------------*/
FoamFile
{
    format      ascii;
    class       surfaceScalarField;
    location    "0.0001";
    object      phi;
}
// * * * * * * * * * * * * * * * * * * * * * * * * * * * * * * * * * * * * * //

dimensions      [1 0 -1 0 0 0 0];

internalField   nonuniform List<scalar> 
62564
(
0.000137372
7.61059e-07
9.91532e-07
0.000147172
2.38031e-06
3.03051e-06
0.0001639
4.2443e-06
5.21012e-06
0.000188435
6.35794e-06
7.5361e-06
0.000222595
8.5107e-06
9.8688e-06
0.000269592
1.03384e-05
1.19029e-05
0.000333999
1.17931e-05
1.33119e-05
0.000420705
1.39793e-05
1.40811e-05
0.000533342
1.95119e-05
1.45465e-05
0.000674021
3.13056e-05
1.51725e-05
0.000847243
4.88579e-05
1.62277e-05
0.00106344
6.90481e-05
1.74825e-05
0.00134462
8.45899e-05
1.82461e-05
0.00172403
9.07319e-05
1.78257e-05
0.00224484
8.67029e-05
1.59148e-05
0.00296043
7.45039e-05
1.28896e-05
0.00393813
5.78839e-05
9.54702e-06
0.0052685
4.03064e-05
6.42157e-06
0.00708101
2.36307e-05
3.68161e-06
8.12414e-06
1.26181e-06
0.000139015
1.31341e-06
1.15283e-06
0.00014909
4.13483e-06
3.56489e-06
0.00016614
7.44954e-06
6.26697e-06
0.000190835
1.12877e-05
9.3409e-06
0.000224864
1.51626e-05
1.26199e-05
0.000271762
1.80957e-05
1.55372e-05
0.000337262
1.95737e-05
1.7311e-05
0.000427718
2.17762e-05
1.78921e-05
0.00054693
3.1061e-05
1.79728e-05
0.000693682
5.62208e-05
1.85203e-05
0.000869736
9.53493e-05
2.0217e-05
0.0010816
0.000143262
2.27027e-05
0.00135364
0.000179048
2.4542e-05
0.00172286
0.000192567
2.43766e-05
0.00223507
0.000183968
2.15809e-05
0.00294582
0.000156865
1.68697e-05
0.00392198
0.000120532
1.19724e-05
0.00525267
8.29845e-05
7.76315e-06
0.00706602
4.82132e-05
4.33969e-06
1.65219e-05
1.47379e-06
0.000141892
1.42174e-06
1.4804e-06
0.000152541
4.53346e-06
4.67184e-06
0.000170287
8.30086e-06
8.54127e-06
0.000195328
1.27827e-05
1.34335e-05
0.00022884
1.71816e-05
1.92341e-05
0.000274863
1.94161e-05
2.46692e-05
0.000341894
1.7659e-05
2.72855e-05
0.000440237
1.47385e-05
2.70939e-05
0.000575796
2.2016e-05
2.58089e-05
0.000737399
6.46087e-05
2.57542e-05
0.000922225
0.000132997
2.90257e-05
0.00112285
0.000228964
3.50279e-05
0.00137378
0.000293742
3.99733e-05
0.00172068
0.000315801
4.07604e-05
0.00221321
0.00030341
3.57013e-05
0.00291389
0.000255192
2.61584e-05
0.00388779
0.00019221
1.72496e-05
0.00521998
0.000129874
1.05125e-05
0.00703556
7.43743e-05
5.63338e-06
2.55615e-05
1.87194e-06
0.000145111
8.62698e-07
1.96504e-06
0.00015658
2.79368e-06
6.36298e-06
0.000175366
5.15023e-06
1.22356e-05
0.000200843
7.86267e-06
2.0675e-05
0.000232785
9.79498e-06
3.2144e-05
0.000275253
7.37994e-06
4.39372e-05
0.000342455
-3.50575e-06
4.76766e-05
0.000451907
-3.33811e-06
4.4801e-05
-7.02858e-06
-2.76581e-06
-6.73215e-06
0.000621361
-9.53467e-06
3.98621e-05
-6.13246e-06
-9.59063e-06
-5.84282e-06
0.000810703
7.2898e-06
3.70433e-05
1.24331e-05
7.40184e-06
1.26881e-05
0.00102065
3.10437e-05
4.34328e-05
3.9964e-05
3.12172e-05
4.02136e-05
0.0011938
7.60138e-05
5.83949e-05
9.26064e-05
7.66392e-05
9.37546e-05
0.00140507
0.000112922
7.04459e-05
0.00010481
0.00011414
0.000106513
0.00171453
0.000465418
7.44093e-05
0.00217019
0.000458061
6.52052e-05
0.00285629
0.000375804
4.34892e-05
0.00383034
0.000274094
2.60393e-05
0.00516815
0.000180066
1.47117e-05
0.00698902
0.000101182
7.49096e-06
3.46988e-05
2.43447e-06
0.000147221
-4.4258e-07
2.54559e-06
0.000159376
-1.47946e-06
8.46938e-06
0.000179035
-3.29716e-06
1.72044e-05
0.000204451
-6.86233e-06
3.1564e-05
0.000232631
-1.43752e-05
5.44489e-05
0.000266266
-3.12234e-05
8.1844e-05
7.70043e-05
-1.1828e-05
8.60714e-05
-9.99722e-06
-1.08061e-05
-9.56949e-06
7.90543e-05
7.74819e-05
7.91739e-05
9.24634e-05
-1.365e-05
8.68913e-06
0.000138047
-2.58034e-05
7.56406e-06
-0.000111181
-0.000166003
0.000193967
-3.41878e-06
6.31025e-06
-0.000219855
0.000256206
1.87042e-05
6.84568e-06
-0.000286284
0.000310468
8.36549e-05
1.02762e-05
-0.00031594
0.000335632
0.00013274
1.33678e-05
0.00171047
0.000145063
0.000136157
0.000166398
0.000146013
0.000168624
-0.00034928
-0.000366904
-0.000350101
-0.000369494
0.00208577
0.000683539
0.000121256
0.00275651
0.000520769
7.08069e-05
0.00374096
0.000359283
3.7921e-05
0.00509374
0.000227021
1.9821e-05
0.006926
0.000124378
9.61106e-06
4.24737e-05
3.06216e-06
0.000146429
-2.16579e-06
3.07019e-06
0.000158158
-7.33995e-06
1.04287e-05
0.000176708
-1.56583e-05
2.21227e-05
0.000198986
-3.05823e-05
4.34984e-05
0.000219592
-5.96326e-05
8.30717e-05
5.72252e-05
-2.46897e-05
0.000141033
5.85912e-05
5.80635e-05
5.89281e-05
-2.91555e-05
-2.43002e-05
-2.96534e-05
6.59684e-05
-2.49307e-05
1.55415e-05
-7.41935e-05
0.000108733
-5.634e-05
1.53165e-05
2.18454e-05
8.53728e-05
-8.15023e-05
4.73517e-06
-0.000288352
0.000476431
1.6268e-05
-0.00015425
-0.000373328
0.000400676
0.000164591
2.21817e-05
0.00191871
0.000268463
0.000199712
-0.000404517
-0.000417415
-0.000405392
-0.000420926
0.000232578
0.000271174
0.00023503
0.00258796
0.000683016
9.95686e-05
0.00360995
0.000422804
4.87372e-05
0.00499517
0.000254668
2.41734e-05
0.00684808
0.000135729
1.13577e-05
4.5746e-05
3.57512e-06
0.000141553
-3.50191e-06
3.33716e-06
0.000150566
-1.19129e-05
1.13659e-05
0.000163117
-2.51708e-05
2.41599e-05
0.000172609
-4.76449e-05
4.70392e-05
4.26714e-05
-1.92622e-05
8.77545e-05
3.75949e-05
4.38517e-05
3.81001e-05
-2.25756e-05
-1.91468e-05
-2.31082e-05
4.2973e-05
-3.23226e-05
1.56613e-05
5.67454e-05
-6.24747e-05
1.27975e-05
-0.000470618
0.000353535
0.000475669
3.15315e-05
0.00232556
0.000200117
0.000102224
-0.000401001
-0.000361262
-0.000399864
-0.000360457
0.000163579
0.00020136
0.000164855
0.00344137
0.000405846
5.13408e-05
0.00488043
0.000242158
2.56996e-05
0.00676215
0.000128255
1.2063e-05
4.27718e-05
3.79985e-06
0.000133444
-3.67702e-06
3.29174e-06
0.000138022
-1.25721e-05
1.10849e-05
0.000142017
-2.66787e-05
2.30279e-05
3.44503e-05
-5.0618e-05
4.32119e-05
3.38978e-05
3.52276e-05
3.44024e-05
3.32893e-05
-2.12045e-05
8.71382e-06
3.17053e-05
3.97685e-05
-4.73339e-05
1.53857e-05
-3.15524e-05
5.72114e-07
2.70528e-06
6.86347e-05
-5.18645e-08
-5.67646e-07
4.20646e-06
0.000108103
-0.0002878
0.000334996
1.01053e-05
-0.00031012
0.000411697
0.000202768
1.32069e-05
0.00327963
0.000365779
4.61001e-05
-0.000524378
-0.000526037
-0.000524112
-0.000525678
0.00476755
0.000204767
2.40822e-05
0.00667863
0.000105054
1.15717e-05
3.43768e-05
3.70362e-06
0.000124818
-2.37448e-06
3.06054e-06
0.000124476
-8.16607e-06
1.00977e-05
0.00011901
-1.75694e-05
2.01391e-05
2.63975e-05
-3.42918e-05
3.58895e-05
2.33238e-05
2.66902e-05
2.36615e-05
2.36801e-05
-1.90682e-05
7.23787e-06
1.95799e-05
2.6899e-05
-2.88004e-05
4.82394e-06
-1.67686e-06
-1.72797e-06
3.88676e-06
3.898e-06
0.000158945
-1.60391e-07
2.35732e-05
0.00129714
-7.21121e-06
-7.00063e-06
-7.93037e-06
-7.26598e-06
-5.15159e-06
-6.93272e-06
-5.66816e-06
4.38979e-07
-5.13651e-06
2.39227e-05
0.00129796
-7.04227e-06
-7.16257e-06
-7.28709e-06
-7.7658e-06
-7.0377e-06
-5.80442e-06
2.43043e-07
-4.49883e-06
-3.91669e-06
5.16033e-06
0.000148712
1.72726e-06
7.17442e-05
1.61772e-06
-0.000277645
0.000326382
0.000287197
1.22065e-05
-0.000191118
0.00310531
0.000238332
3.70583e-05
-0.000458732
-0.000432568
-0.000458815
-0.00043191
0.00466215
0.00012431
2.06873e-05
0.00660702
6.16186e-05
1.0396e-05
1.99634e-05
3.41746e-06
0.000119192
2.39784e-10
2.85717e-06
0.000115388
8.92157e-10
9.23816e-06
0.000102774
1.97794e-09
1.7603e-05
1.80338e-05
3.93509e-09
2.87471e-05
1.70213e-05
1.81507e-05
1.71788e-05
1.369e-05
1.10904e-05
-7.45038e-06
5.10377e-06
2.69762e-06
5.74451e-07
6.86725e-05
2.3601e-05
-8.16819e-08
0.0013004
-7.24107e-06
-6.98393e-06
-7.86356e-06
-7.24451e-06
-5.0852e-06
-7.03661e-06
-5.7759e-06
9.01399e-08
-1.99716e-07
-1.91568e-07
0.00133035
-2.35478e-05
-6.17678e-07
0.0013305
-7.07301e-06
-4.45335e-07
0.00129973
-7.17192e-06
-7.79921e-06
-7.4146e-06
-7.13697e-06
-5.02528e-06
1.07165e-07
-5.52835e-06
-5.49579e-07
-2.69229e-06
5.99568e-07
0.000182612
-0.000159478
0.000204777
7.29734e-05
5.86614e-06
0.00298063
-4.7393e-09
2.88893e-05
-0.000386218
-0.000378107
-0.000385775
-0.000377674
0.00459361
-8.31737e-09
1.78183e-05
0.00656367
-8.89336e-09
9.42154e-06
-8.37206e-09
3.17401e-06
0.000119192
2.37485e-06
2.85719e-06
0.000115389
8.16754e-06
9.2382e-06
0.000102776
1.75728e-05
1.7603e-05
1.70609e-05
3.43006e-05
2.87462e-05
1.79952e-05
1.72187e-05
1.81116e-05
6.46206e-09
9.25068e-06
7.4722e-06
4.51578e-06
4.69284e-08
4.19297e-06
-5.8861e-07
0.000107098
2.40155e-05
-5.03924e-06
0.00129537
-7.04355e-06
-7.15797e-06
-7.31468e-06
-7.90435e-06
-7.02788e-06
-5.49931e-06
3.45638e-07
-5.5347e-07
-2.33254e-05
0.00132652
-2.34923e-05
-2.36865e-05
0.00132698
-6.92404e-06
-6.9431e-06
0.00129649
-7.25504e-06
-7.16902e-06
-7.83894e-06
-5.2202e-06
2.54776e-07
-5.89999e-06
-1.32127e-07
-4.18179e-06
-4.4974e-07
0.000146284
-1.16588e-09
0.000187956
-7.29743e-05
4.89602e-06
0.00298065
-0.000238325
2.88871e-05
-0.000378096
-0.000386252
-0.000377661
-0.00038581
0.00459363
-0.000124319
1.78192e-05
0.00656369
-6.16368e-05
9.42398e-06
-1.99774e-05
3.17507e-06
0.000124819
3.6772e-06
3.06063e-06
0.000124478
1.25724e-05
1.00979e-05
0.000119016
2.66781e-05
2.01392e-05
2.33613e-05
5.06149e-05
3.58883e-05
2.63716e-05
2.36989e-05
2.66612e-05
-1.36829e-05
1.6569e-05
1.90867e-05
6.09271e-06
-4.53423e-06
5.25287e-06
-3.8692e-06
0.00014883
-5.928e-07
-7.00099e-06
0.00129902
-7.19217e-06
-7.61289e-06
-7.42098e-06
-7.18472e-06
-5.02539e-06
-1.28124e-07
-5.74869e-06
-6.93607e-06
-6.9054e-06
0.00129836
-7.3349e-06
-7.16526e-06
-8.04465e-06
-5.14177e-06
2.56499e-07
-5.62488e-06
-5.06986e-06
-5.17048e-06
0.00014973
6.23432e-07
-1.73204e-06
0.000137122
4.50104e-06
0.000159487
0.000255643
-0.000287203
8.32814e-06
0.00310536
-0.000365793
3.70551e-05
-0.000432547
-0.00045877
-0.000431887
-0.000458851
0.00466221
-0.000204784
2.06892e-05
0.00660707
-0.00010507
1.04025e-05
-3.43876e-05
3.42022e-06
0.000133445
3.50219e-06
3.29195e-06
0.000138021
1.19138e-05
1.10855e-05
0.000142012
2.51731e-05
2.30292e-05
3.39042e-05
4.76528e-05
4.32154e-05
3.44364e-05
3.44007e-05
3.52177e-05
-1.95653e-05
2.94902e-05
2.1188e-05
8.05343e-06
-2.68959e-05
4.73394e-05
9.9225e-06
-2.49806e-05
1.73235e-06
7.0844e-05
1.72538e-06
-5.6232e-07
6.07945e-07
-2.6807e-06
0.000182539
-6.97129e-08
-4.42472e-07
-4.1791e-06
0.000146224
6.33102e-07
-1.74104e-06
0.000137483
4.53397e-06
0.000191125
-0.000259612
0.000380922
-0.000202773
1.11418e-05
0.00327973
-0.000405873
4.60976e-05
-0.000526034
-0.000524428
-0.000525674
-0.000524154
0.00476764
-0.000242172
2.40852e-05
0.0066787
-0.000128265
1.15784e-05
-4.27759e-05
3.70728e-06
0.000141554
2.16608e-06
3.33747e-06
0.000150566
7.34087e-06
1.13668e-05
0.000163116
1.56603e-05
2.41616e-05
0.000172609
3.05862e-05
4.70421e-05
3.7584e-05
5.96402e-05
8.77598e-05
4.26841e-05
3.80758e-05
4.38666e-05
-1.91931e-05
-2.26443e-05
-1.90734e-05
-2.31864e-05
-3.17061e-05
3.00719e-05
3.2286e-05
1.40647e-05
0.000287834
0.000256608
-0.000475748
1.84712e-05
0.00232568
-0.000683052
0.000102225
-0.000361271
-0.000401057
-0.000360464
-0.000399916
0.00020012
0.000163593
0.000201361
0.000164873
0.00344149
-0.000422834
5.13438e-05
0.0048805
-0.000254645
2.57032e-05
0.00676223
-0.000135767
1.20679e-05
-4.57428e-05
3.80373e-06
0.00014643
4.42869e-07
3.07054e-06
0.000158158
1.48053e-06
1.04296e-05
0.000176705
3.30017e-06
2.21245e-05
0.000198977
6.87074e-06
4.35011e-05
0.000219564
1.43985e-05
8.30742e-05
5.85228e-05
3.12645e-05
0.000141032
-2.46249e-05
-2.92224e-05
-2.42375e-05
-2.9722e-05
5.72634e-05
5.88578e-05
5.81032e-05
-5.67465e-05
8.19335e-05
2.48973e-05
2.16169e-05
-5.73928e-05
5.63338e-05
7.66623e-06
-0.000337586
0.000545796
-0.000164593
2.18149e-05
0.0019188
-0.000683634
0.000199703
0.000268532
0.000232577
0.000271226
0.000235031
-0.000417379
-0.000404605
-0.000420897
-0.000405472
0.00258807
-0.000520814
9.95668e-05
0.00361004
-0.000359295
4.87385e-05
0.00499529
-0.000227022
2.41755e-05
0.00684815
-0.000124374
1.13607e-05
-4.24668e-05
3.57758e-06
0.000147222
-8.62437e-07
2.54591e-06
0.000159376
-2.79261e-06
8.47025e-06
0.000179035
-5.14721e-06
1.72059e-05
0.000204449
-7.85495e-06
3.15662e-05
0.000232634
-9.77924e-06
5.44522e-05
0.00026629
-7.35929e-06
8.18444e-05
7.9055e-05
3.50376e-06
8.60699e-05
-1.18003e-05
-1.00187e-05
-1.07783e-05
-9.59989e-06
7.70201e-05
7.91658e-05
7.75015e-05
-2.18376e-05
8.99837e-05
1.36361e-05
1.06377e-05
-8.53747e-05
0.000178419
2.5798e-05
1.05058e-05
-0.000107791
-0.000172251
0.000184335
3.42221e-06
5.78143e-06
-0.000210298
0.000250542
-1.87019e-05
6.0266e-06
-0.000315175
0.000431465
-8.36684e-05
1.10758e-05
0.000154272
-0.00032849
0.00034523
-0.000132763
1.54416e-05
0.00171059
-0.000465479
0.000136152
0.000145081
0.000166424
0.000146025
0.000168642
-0.000366918
-0.000349331
-0.000369516
-0.000350142
0.00208584
-0.000458093
0.00012125
0.00275658
-0.000375838
7.08055e-05
0.00374102
-0.000274101
3.79213e-05
0.0050938
-0.000180066
1.98218e-05
0.00692606
-0.000101177
9.61216e-06
-3.46912e-05
3.06326e-06
0.000145113
-1.42152e-06
1.9653e-06
0.000156581
-4.53255e-06
6.36365e-06
0.000175367
-8.2984e-06
1.22367e-05
0.000200845
-1.27771e-05
2.06765e-05
0.000232792
-1.71715e-05
3.21457e-05
0.00027527
-1.94043e-05
4.39382e-05
0.000342469
-1.76549e-05
4.76765e-05
0.000451942
-1.47338e-05
4.48003e-05
-3.32096e-06
-7.05106e-06
-2.74658e-06
-6.76533e-06
0.000621406
-2.20225e-05
3.98582e-05
-9.52645e-06
-6.13167e-06
-9.58595e-06
-5.8482e-06
0.000810764
-6.46245e-05
3.70391e-05
7.29278e-06
1.2441e-05
7.4046e-06
1.26888e-05
0.00102073
-0.000133021
4.34267e-05
3.10458e-05
3.9978e-05
3.12175e-05
4.02198e-05
0.00119388
-0.000228994
5.83874e-05
7.60311e-05
9.26214e-05
7.665e-05
9.37633e-05
0.00140514
-0.000293792
7.04409e-05
0.000112943
0.000104833
0.000114149
0.000106529
0.00171459
-0.00031584
7.44068e-05
0.00217026
-0.000303435
6.52031e-05
0.00285633
-0.000255204
4.34884e-05
0.00383038
-0.000192216
2.6039e-05
0.00516818
-0.000129873
1.47116e-05
0.00698906
-7.43686e-05
7.49126e-06
-2.55564e-05
2.43536e-06
0.000141893
-1.31324e-06
1.4806e-06
0.000152543
-4.13416e-06
4.67232e-06
0.000170289
-7.44785e-06
8.542e-06
0.000195332
-1.12842e-05
1.34344e-05
0.000228849
-1.51568e-05
1.9235e-05
0.000274878
-1.80893e-05
2.46699e-05
0.000341914
-1.95702e-05
2.72857e-05
0.000440266
-2.1775e-05
2.7093e-05
0.000575833
-3.1066e-05
2.58061e-05
0.000737444
-5.62324e-05
2.57503e-05
0.000922278
-9.53666e-05
2.90206e-05
0.00112291
-0.000143285
3.5023e-05
0.00137383
-0.000179074
3.99697e-05
0.00172071
-0.000192588
4.07581e-05
0.00221325
-0.000183984
3.57e-05
0.00291392
-0.000156873
2.61582e-05
0.00388779
-0.000120514
1.72486e-05
0.00522
-8.30128e-05
1.0513e-05
0.00703558
-4.82094e-05
5.63256e-06
-1.65182e-05
1.87441e-06
0.000139017
-7.60963e-07
1.15299e-06
0.000149092
-2.37994e-06
3.56525e-06
0.000166144
-4.24344e-06
6.26747e-06
0.000190841
-6.35624e-06
9.34149e-06
0.000224874
-8.50804e-06
1.26205e-05
0.000271777
-1.03355e-05
1.55376e-05
0.000337282
-1.17913e-05
1.7311e-05
0.000427745
-1.3979e-05
1.78913e-05
0.000546964
-1.95145e-05
1.79709e-05
0.00069372
-3.13116e-05
1.85174e-05
0.000869777
-4.88666e-05
2.02135e-05
0.00108164
-6.9059e-05
2.26994e-05
0.00135368
-8.46014e-05
2.45395e-05
0.00172289
-9.0742e-05
2.43746e-05
0.0022351
-8.67093e-05
2.15797e-05
0.00294582
-7.44914e-05
1.6869e-05
0.00392202
-5.79065e-05
1.19716e-05
0.00525269
-4.03055e-05
7.7637e-06
0.00706603
-2.363e-05
4.33891e-06
-8.12202e-06
1.47647e-06
0.000137375
9.91667e-07
0.000147175
3.03081e-06
0.000163904
5.21053e-06
0.000188441
7.53657e-06
0.000222605
9.86925e-06
0.000269606
1.19033e-05
0.00033402
1.33118e-05
0.000420731
1.40805e-05
0.000533373
1.45451e-05
0.000674056
1.51704e-05
0.000847279
1.62251e-05
0.00106348
1.748e-05
0.00134465
1.8244e-05
0.00172405
1.78239e-05
0.00224486
1.59132e-05
0.00296047
1.28886e-05
0.00393815
9.54646e-06
0.00526852
6.42166e-06
0.00708103
3.6821e-06
1.2629e-06
0.000138522
8.52549e-07
1.90263e-06
0.000148399
2.68291e-06
5.80824e-06
0.000165203
4.84056e-06
9.96437e-06
0.00018973
7.37274e-06
1.43766e-05
0.000223713
1.00493e-05
1.87829e-05
0.000270345
1.23675e-05
2.26328e-05
0.000334378
1.40313e-05
2.53106e-05
0.000420917
1.61016e-05
2.67887e-05
0.000533679
2.13943e-05
2.76926e-05
0.000674634
3.31211e-05
2.88927e-05
0.00084797
5.09881e-05
3.08995e-05
0.00106386
7.18268e-05
3.32441e-05
0.0013443
8.79499e-05
3.4625e-05
0.00172285
9.42229e-05
3.37649e-05
0.00224304
8.96968e-05
3.01151e-05
0.00295847
7.6524e-05
2.4437e-05
0.00393636
5.90508e-05
1.81021e-05
0.00526704
4.08903e-05
1.22103e-05
0.00707981
2.38711e-05
7.00025e-06
8.18599e-06
2.38208e-06
0.000140374
1.49796e-06
2.20196e-06
0.000150606
4.7606e-06
6.79767e-06
0.000167854
8.7263e-06
1.19154e-05
0.000192652
1.35648e-05
1.77019e-05
0.000226475
1.88087e-05
2.3863e-05
0.000272738
2.31106e-05
2.93726e-05
0.000337588
2.50662e-05
3.27532e-05
0.000427849
2.67672e-05
3.38957e-05
0.000547487
3.52061e-05
3.40792e-05
0.00069502
6.00647e-05
3.51124e-05
0.000871609
0.000100088
3.82735e-05
0.00108308
0.00015005
4.2896e-05
0.00135383
0.00018768
4.62642e-05
0.00172142
0.000201681
4.58901e-05
0.00223249
0.000191684
4.0558e-05
0.00294306
0.000161839
3.16911e-05
0.00391962
0.000123173
2.25306e-05
0.00525081
8.42473e-05
1.46371e-05
0.00706459
4.86602e-05
8.18511e-06
1.66917e-05
2.75231e-06
0.000143684
1.69721e-06
2.80801e-06
0.000154703
5.48532e-06
8.84185e-06
0.000172993
1.03604e-05
1.61075e-05
0.000198508
1.6754e-05
2.52548e-05
0.000231814
2.41487e-05
3.61571e-05
0.000276347
2.97484e-05
4.65615e-05
0.000341794
2.88684e-05
5.16223e-05
0.000439731
2.42961e-05
5.12619e-05
0.000576467
2.90797e-05
4.87815e-05
0.000740255
7.05173e-05
4.85894e-05
0.000926927
0.00014072
5.47588e-05
0.00112693
0.000242026
6.62399e-05
0.00137509
0.000311505
7.56282e-05
0.00171842
0.000334853
7.71274e-05
0.0022082
0.000319708
6.73239e-05
0.00290903
0.000264631
4.8925e-05
0.00388398
0.000196769
3.22276e-05
0.00521729
0.000131718
1.96865e-05
0.00703353
7.50161e-05
1.05571e-05
2.56103e-05
3.47743e-06
0.000147577
1.19149e-06
3.70296e-06
0.000159843
3.97497e-06
1.19618e-05
0.000179995
7.88873e-06
2.29328e-05
0.000207046
1.3715e-05
3.87601e-05
0.000239177
2.14365e-05
6.07986e-05
0.000277704
2.67699e-05
8.46845e-05
0.000341049
1.67912e-05
9.2244e-05
0.000449516
-1.02207e-07
8.62604e-05
-3.66329e-06
2.15673e-06
-2.21341e-06
0.000621873
-7.30133e-06
7.5974e-05
-4.11279e-06
-6.54852e-06
-3.08601e-06
0.000817031
8.65898e-06
6.98833e-05
1.39325e-05
9.16702e-06
1.44889e-05
0.00103273
3.26336e-05
8.24218e-05
4.23031e-05
3.35476e-05
4.29626e-05
0.00120493
7.9869e-05
0.000112949
9.84772e-05
8.19215e-05
0.000100047
0.00141007
0.000120009
0.000137167
0.000111665
0.000122679
0.000115593
0.00171106
0.000500031
0.000145568
0.00215956
0.000488711
0.000126782
0.00284729
0.000391098
8.18557e-05
0.00382431
0.000280585
4.84824e-05
0.00516418
0.000182461
2.73908e-05
0.00698632
0.000101767
1.3969e-05
3.47289e-05
4.48955e-06
0.000150535
-1.45081e-07
4.77552e-06
0.000164209
-3.88711e-07
1.58607e-05
0.000186836
-6.20744e-07
3.22206e-05
0.000216573
-5.68901e-07
5.97069e-05
0.000246933
3.56554e-09
0.000106363
0.000269933
-3.31736e-06
0.000169512
7.60612e-05
-6.75931e-06
0.000178255
-4.74238e-06
-2.63435e-06
-2.76887e-06
7.86244e-05
7.69207e-05
7.75897e-05
-1.76775e-05
9.15277e-05
-1.02526e-05
2.65433e-05
-1.46681e-05
0.000137806
-2.42023e-05
2.25619e-05
-0.000110287
-1.19046e-05
-0.000166264
0.000195508
-2.45862e-06
1.765e-05
-1.29433e-05
-0.000222333
0.000260486
1.95549e-05
1.91035e-05
-1.952e-05
-0.000291347
0.000317094
8.65599e-05
2.97389e-05
-0.000320584
-2.59687e-05
0.000339988
0.000139535
4.05809e-05
0.00170657
0.00015345
0.000289836
0.00017499
0.000156242
0.000181152
-0.000352606
-0.000370694
-0.000351496
-0.000372214
0.00206192
0.000726981
0.000257091
0.00274013
0.000538524
0.000136143
0.00373166
0.000366129
7.069e-05
0.00508847
0.000229288
3.67679e-05
0.00692256
0.000124861
1.78487e-05
4.23323e-05
5.60373e-06
0.000150541
-2.01653e-06
5.74983e-06
0.000164617
-6.8315e-06
1.95259e-05
0.000188289
-1.45935e-05
4.16654e-05
0.0002196
-2.86939e-05
8.42388e-05
0.000248037
-5.72111e-05
0.000173963
5.70647e-05
-2.53413e-05
0.000341954
5.97705e-05
5.89291e-05
5.88738e-05
-2.87016e-05
-2.34145e-05
-2.9437e-05
-3.26236e-05
6.5135e-05
-2.17569e-05
5.13088e-05
-3.12001e-05
-7.26372e-05
0.000102708
-5.11607e-05
4.9343e-05
1.86306e-05
-9.60359e-06
7.98494e-05
-7.66932e-05
1.48385e-05
-3.25965e-05
-0.000284919
0.00047539
5.12619e-05
-0.000159273
-4.43252e-05
-0.000377941
0.000404933
0.000168969
7.18486e-05
0.00187243
0.000272281
0.000488972
-0.000405318
-0.000417398
-0.000401896
-0.00041727
0.000233846
0.000270404
0.000236212
0.00256237
0.000692133
0.000194151
0.00359727
0.000426827
9.07264e-05
0.00498866
0.000255907
4.47176e-05
0.00684419
0.000135814
2.10309e-05
4.55454e-05
6.49934e-06
0.000146035
-3.53206e-06
6.25072e-06
0.00015766
-1.21104e-05
2.12999e-05
0.000175804
-2.59791e-05
4.56214e-05
0.000194477
-5.03271e-05
9.14917e-05
4.79668e-05
-2.08442e-05
0.000183779
4.29662e-05
5.21027e-05
4.49142e-05
-2.39463e-05
-2.00986e-05
-2.50543e-05
-3.29393e-05
4.66006e-05
-3.41078e-05
5.19632e-05
-2.61362e-05
5.3806e-05
-6.2498e-05
4.21339e-05
-6.31519e-05
-0.000455735
0.000347866
0.000463324
0.00010133
0.00229714
0.000201263
0.000203378
-0.000392118
-0.000351727
-0.000385725
-0.000347965
0.000163831
0.000200204
0.000165175
0.00342723
0.000405118
9.66777e-05
0.00487346
0.000241698
4.77208e-05
0.0067581
0.000127883
2.23338e-05
4.2493e-05
6.86988e-06
0.000137778
-3.8154e-06
6.17255e-06
0.000144607
-1.31786e-05
2.07914e-05
0.000153228
-2.85298e-05
4.34573e-05
3.82841e-05
-5.57487e-05
8.36157e-05
3.78804e-05
4.06896e-05
3.94935e-05
-1.77753e-05
3.72799e-05
-2.306e-05
2.6913e-05
-3.16544e-05
3.40396e-05
4.245e-05
-5.10462e-05
5.0297e-05
-3.57e-05
-0.000136129
3.9644e-07
3.16324e-06
0.000204308
-0.000215257
2.59168e-06
-5.67802e-07
6.24446e-06
0.000319829
-2.06341e-05
-0.000276499
0.000319602
3.29539e-05
-0.000304357
-2.65546e-05
0.000406313
0.000203943
4.069e-05
0.00326713
0.000363017
8.79274e-05
-0.00052006
-0.00052109
-0.000517139
-0.000518827
0.00476109
0.000203686
4.48939e-05
0.00667485
0.000104564
2.14329e-05
3.41969e-05
6.63922e-06
0.000128706
-2.49397e-06
5.74916e-06
0.000129927
-8.67879e-06
1.89629e-05
0.000127345
-1.91072e-05
3.79536e-05
2.94176e-05
-3.85637e-05
6.88321e-05
2.56193e-05
3.02822e-05
2.67926e-05
-1.41678e-05
2.65235e-05
-2.13734e-05
2.21537e-05
2.15745e-05
-9.68411e-06
2.90218e-05
-3.14354e-05
1.50496e-05
8.22564e-07
-5.14276e-06
-0.000317997
6.96956e-06
5.49958e-06
0.00047776
-2.13627e-08
3.77109e-05
0.00269474
-1.24271e-05
-1.43422e-05
-1.45267e-05
-1.35614e-05
-9.99671e-06
-2.0031e-05
-1.14315e-05
3.21674e-06
-9.72748e-06
3.76707e-05
0.00269629
-1.44134e-05
-1.25583e-05
-1.35989e-05
-1.43945e-05
-2.00488e-05
-1.15718e-05
3.04741e-06
-7.44096e-06
-0.000301488
-5.73987e-06
1.06487e-05
0.00045159
-0.000140285
2.26122e-06
0.000213608
-8.28115e-07
-2.36655e-05
-0.000264748
0.000322161
0.000276696
3.56741e-05
-0.000190627
0.0030946
0.000235768
7.10637e-05
-0.000454808
-0.000428611
-0.000453536
-0.000426935
0.00465638
0.000123412
3.85796e-05
0.00660361
6.12625e-05
1.92422e-05
1.9831e-05
6.0604e-06
0.000122704
2.52454e-10
5.37451e-06
0.000119893
9.47866e-10
1.73606e-05
0.000108634
2.10158e-09
3.30814e-05
1.9499e-05
3.93997e-09
5.42704e-05
1.82637e-05
1.99218e-05
1.88192e-05
-9.95915e-06
1.53815e-05
1.19224e-05
-8.39746e-06
1.51353e-05
-0.000136191
3.08141e-06
5.93236e-07
0.000204258
3.82654e-05
4.03316e-07
0.00269914
-1.27454e-05
-1.43835e-05
-1.47251e-05
-1.36679e-05
-9.48893e-06
-1.97012e-05
-1.11501e-05
2.94715e-06
-1.74326e-07
-1.57266e-07
0.00275867
-3.83338e-05
-5.78718e-07
0.00275909
-1.23701e-05
-1.21055e-06
0.00269988
-1.45317e-05
-1.47188e-05
-1.3843e-05
-1.98454e-05
-9.64196e-06
3.07676e-06
-1.09528e-05
-0.000365517
-9.63816e-07
-3.13464e-06
-1.01256e-06
0.000550362
-1.08859e-05
-0.000153992
0.000200502
7.0517e-05
1.57828e-05
0.00297165
-6.34652e-09
5.51835e-05
-0.000382999
-0.000375196
-0.000382212
-0.000374262
0.00458848
-8.06259e-09
3.31989e-05
0.00656057
-7.35556e-09
1.74217e-05
-7.76498e-09
5.5851e-06
0.000122704
2.49438e-06
5.37454e-06
0.000119894
8.68037e-06
1.73607e-05
0.000108635
1.9111e-05
3.30813e-05
1.83014e-05
3.85734e-05
5.42693e-05
1.94611e-05
1.88591e-05
1.98821e-05
-8.80638e-06
6.04299e-09
9.82971e-06
8.41946e-06
1.32025e-05
-0.000213265
-2.69399e-06
6.36387e-06
-3.82429e-07
0.000322786
3.80851e-05
-9.61754e-06
0.002691
-1.44297e-05
-1.25017e-05
-1.36514e-05
-1.4466e-05
-1.98811e-05
-1.14393e-05
3.02861e-06
-3.75374e-07
-3.79391e-05
0.0027509
-3.81108e-05
-3.80426e-05
0.00275053
-1.43206e-05
-1.99009e-05
0.00269102
-1.26139e-05
-1.36134e-05
-1.48036e-05
-9.84849e-06
3.37795e-06
-1.10845e-05
-0.000298388
1.93752e-07
-6.29158e-06
9.89365e-07
0.000444362
-8.97541e-06
-9.9525e-10
0.000184294
-7.05185e-05
1.28537e-05
0.00297168
-0.000235764
5.5182e-05
-0.000375185
-0.000383031
-0.000374249
-0.000382245
0.0045885
-0.00012342
3.32007e-05
0.00656059
-6.1278e-05
1.74245e-05
-1.9844e-05
5.58739e-06
0.000128707
3.81564e-06
5.74931e-06
0.000129929
1.31792e-05
1.89633e-05
0.000127351
2.85299e-05
3.79537e-05
2.56559e-05
5.57495e-05
6.88299e-05
2.93897e-05
2.68296e-05
3.02536e-05
-1.18926e-05
-1.53751e-05
1.81911e-05
2.13934e-05
1.82629e-05
-7.01582e-06
-0.000301202
1.06344e-05
-6.19472e-06
0.000451347
-5.72036e-07
-1.23555e-05
0.0026987
-1.45588e-05
-1.46552e-05
-1.38189e-05
-1.99353e-05
-9.60219e-06
2.83718e-06
-1.10964e-05
-1.97023e-05
-1.42807e-05
0.00269585
-1.26967e-05
-1.3508e-05
-1.45349e-05
-9.71184e-06
2.68291e-06
-1.15829e-05
-0.000315151
-1.04664e-05
-1.06273e-05
0.000456276
-0.000273556
9.80888e-07
-1.84653e-06
0.000411944
7.04478e-06
-1.55916e-05
0.000154001
0.000250547
-0.000276699
2.29835e-05
0.00309465
-0.000363031
7.10611e-05
-0.000428596
-0.000454842
-0.000426917
-0.000453567
0.00465646
-0.000203726
3.85828e-05
0.00660365
-0.000104543
1.92519e-05
-3.42072e-05
6.06465e-06
0.000137778
3.5324e-06
6.17292e-06
0.000144607
1.21114e-05
2.07925e-05
0.000153226
2.59814e-05
4.34593e-05
3.78855e-05
5.0335e-05
8.36194e-05
3.82749e-05
3.9493e-05
4.06844e-05
-2.15608e-05
-1.58432e-05
3.2999e-05
2.30416e-05
2.47899e-05
-2.01888e-05
-2.90172e-05
5.10506e-05
3.17471e-05
-2.79726e-05
-0.000142262
1.85459e-06
0.000213497
2.1223e-06
-0.000365993
-9.28182e-07
-9.8796e-07
-3.13252e-06
0.000551017
-0.000297464
1.99965e-07
1.02398e-06
-6.24998e-06
0.000442903
-0.000272661
9.5894e-07
-1.82627e-06
0.000410636
7.02503e-06
0.000190628
-0.00025241
-2.27325e-05
0.000375247
-0.000203947
3.50463e-05
0.00326722
-0.00040514
8.79232e-05
-0.00052109
-0.00052011
-0.000518821
-0.000517175
0.00476114
-0.000241711
4.48988e-05
0.00667492
-0.000127894
2.14446e-05
-4.24969e-05
6.64503e-06
0.000146036
2.01683e-06
6.25128e-06
0.00015766
6.83243e-06
2.13015e-05
0.000175804
1.45954e-05
4.56242e-05
0.000194481
2.86975e-05
9.14954e-05
4.29524e-05
5.72181e-05
0.000183781
4.79895e-05
4.4896e-05
5.21215e-05
-2.07699e-05
-2.40261e-05
-2.00208e-05
-2.51346e-05
-2.85438e-05
-3.40405e-05
3.28025e-05
3.40687e-05
4.62777e-05
-3.85127e-05
0.000276529
0.000249686
-0.000463391
6.20883e-05
0.00229726
-0.000692162
0.000203375
-0.000351738
-0.00039217
-0.000347973
-0.00038577
0.000201262
0.000163851
0.000200195
0.000165195
0.00342734
-0.000426838
9.66805e-05
0.00487352
-0.000255885
4.77267e-05
0.00675818
-0.000135853
2.23427e-05
-4.55429e-05
6.87664e-06
0.000150543
1.45346e-07
5.75047e-06
0.000164618
3.89698e-07
1.95277e-05
0.000188287
6.23523e-07
4.16686e-05
0.000219593
5.76848e-07
8.42436e-05
0.000248011
1.85278e-08
0.000173968
5.96941e-05
3.35656e-06
0.000341953
-2.52691e-05
-2.87708e-05
-2.33492e-05
-2.94989e-05
5.71053e-05
5.87992e-05
5.89693e-05
-4.44264e-05
-5.38092e-05
7.84498e-05
2.17222e-05
7.14891e-05
-1.5601e-05
-5.37251e-05
5.11549e-05
2.47663e-05
-4.39064e-05
-0.000331079
0.000538902
-0.000168975
7.01225e-05
0.00187251
-0.000727057
0.00048896
0.000272336
0.000233864
0.000270433
0.000236215
-0.00041736
-0.000405402
-0.000417248
-0.000401971
0.00256246
-0.00053855
0.000194146
0.00359736
-0.000366139
9.07267e-05
0.00498876
-0.000229289
4.47206e-05
0.00684425
-0.000124858
2.10357e-05
-4.23262e-05
6.50319e-06
0.000150536
-1.19127e-06
4.77612e-06
0.00016421
-3.97404e-06
1.58624e-05
0.000186836
-7.88597e-06
3.22234e-05
0.000216573
-1.37077e-05
5.97111e-05
0.000246939
-2.14214e-05
0.000106368
0.000269957
-2.67494e-05
0.000169513
7.86177e-05
-1.67931e-05
0.000178253
-6.7261e-06
-4.76557e-06
-2.60618e-06
-2.79919e-06
7.60795e-05
7.75814e-05
7.69412e-05
-1.86243e-05
-2.1846e-05
8.89051e-05
1.02364e-05
3.37692e-05
-2.08726e-05
-7.98506e-05
0.00017249
2.41986e-05
3.17751e-05
-0.000106125
-1.13605e-05
-0.000167675
0.000180766
2.4549e-06
1.68744e-05
-1.1903e-05
-0.000207418
0.00024846
-1.95591e-05
1.7636e-05
-2.25115e-05
-0.000313874
0.000432215
-8.65727e-05
3.4434e-05
0.000159292
-0.000335075
-3.16395e-05
0.000352038
-0.000139552
4.94524e-05
0.00170667
-0.000500087
0.000289832
0.000153472
0.000175025
0.000156237
0.00018117
-0.000370702
-0.00035264
-0.000372244
-0.000351534
0.00206199
-0.000488747
0.000257084
0.0027402
-0.000391114
0.00013614
0.00373172
-0.000280592
7.0689e-05
0.00508849
-0.000182433
3.67679e-05
0.00692261
-0.0001018
1.78501e-05
-3.47215e-05
5.60522e-06
0.000147578
-1.69703e-06
3.70344e-06
0.000159845
-5.48452e-06
1.1963e-05
0.000179997
-1.03582e-05
2.29348e-05
0.000207049
-1.67487e-05
3.87629e-05
0.000239185
-2.4139e-05
6.08017e-05
0.000277721
-2.9737e-05
8.46867e-05
0.000341064
-2.88645e-05
9.22445e-05
0.000449548
-2.42916e-05
8.62598e-05
-8.12646e-08
-3.68851e-06
2.17791e-06
-2.24663e-06
0.000621915
-2.90854e-05
7.5966e-05
-7.29461e-06
-4.1119e-06
-6.54339e-06
-3.09163e-06
0.000817088
-7.05328e-05
6.98736e-05
8.66868e-06
1.39411e-05
9.16846e-06
1.44861e-05
0.00103279
-0.000140738
8.24093e-05
3.26396e-05