/*--------------------------------*- C++ -*----------------------------------*\
  =========                 |
  \\      /  F ield         | OpenFOAM: The Open Source CFD Toolbox
   \\    /   O peration     | Website:  https://openfoam.org
    \\  /    A nd           | Version:  11
     \\/     M anipulation  |
\*---------------------------------------------------------------------------*/
FoamFile
{
    format      ascii;
    class       volScalarField;
    location    "0.0001";
    object      rho;
}
// * * * * * * * * * * * * * * * * * * * * * * * * * * * * * * * * * * * * * //

dimensions      [1 -3 0 0 0 0 0];

internalField   nonuniform List<scalar> 
21740
(
2.83769
2.83503
2.83217
2.82899
2.82533
2.821
2.81575
2.80924
2.80103
2.79061
2.77739
2.76066
2.73945
2.7123
2.677
2.63021
2.56708
2.48053
2.35996
2.18856
2.83767
2.83498
2.83209
2.82886
2.82515
2.82078
2.8155
2.80894
2.80062
2.78998
2.77643
2.75933
2.73782
2.71054
2.67531
2.62875
2.56592
2.4797
2.35944
2.18837
2.83765
2.8349
2.83194
2.82863
2.82483
2.82039
2.81507
2.80845
2.79992
2.78882
2.77453
2.75658
2.73437
2.70678
2.67176
2.62574
2.56357
2.47802
2.35841
2.188
2.83762
2.8348
2.83176
2.82835
2.82445
2.81994
2.81467
2.80804
2.79931
2.78749
2.77185
2.75223
2.72873
2.70054
2.66599
2.62098
2.55996
2.4755
2.35689
2.18745
2.8376
2.83474
2.83164
2.82815
2.82416
2.81966
2.81468
2.81
2.80205
2.79054
2.77443
2.75352
2.72893
2.69096
2.65743
2.61417
2.55498
2.47213
2.35491
2.18675
2.8376
2.83476
2.83168
2.82821
2.8243
2.82001
2.81655
2.81132
2.80437
2.71812
2.68823
2.64509
2.60487
2.54851
2.46796
2.35254
2.18593
2.83764
2.83489
2.83195
2.82874
2.82528
2.82228
2.81883
2.63943
2.59239
2.54051
2.46319
2.34998
2.18508
2.83771
2.8351
2.8324
2.82962
2.82723
2.82462
2.54265
2.54264
2.61381
2.58888
2.53242
2.45864
2.34764
2.18433
2.83777
2.83533
2.83289
2.83053
2.82875
2.82723
2.54267
2.54105
2.54105
2.54253
2.5427
2.57247
2.52586
2.45508
2.34589
2.1838
2.83782
2.83548
2.8332
2.83115
2.82994
2.54265
2.54104
2.54059
2.54059
2.54104
2.54261
2.55793
2.52136
2.45295
2.3449
2.18351
2.83782
2.83548
2.8332
2.83115
2.83023
2.54264
2.54105
2.5406
2.5406
2.54105
2.54254
2.55429
2.52136
2.45295
2.3449
2.18351
2.83777
2.83533
2.83289
2.83053
2.82944
2.54254
2.54104
2.54105
2.54236
2.54267
2.56445
2.52586
2.45508
2.34589
2.1838
2.83771
2.8351
2.8324
2.82962
2.82803
2.82599
2.5427
2.54261
2.54254
2.54267
2.58018
2.53242
2.45865
2.34764
2.18433
2.83764
2.83489
2.83195
2.82874
2.82528
2.82341
2.62663
2.59239
2.54051
2.46319
2.34998
2.18508
2.8376
2.83476
2.83168
2.82821
2.8243
2.82001
2.81737
2.81302
2.67958
2.64508
2.60487
2.54851
2.46796
2.35254
2.18593
2.8376
2.83474
2.83164
2.82815
2.82416
2.81966
2.81468
2.81052
2.8024
2.79079
2.77351
2.75094
2.72396
2.69096
2.65743
2.61417
2.55498
2.47213
2.35491
2.18675
2.83762
2.8348
2.83176
2.82835
2.82445
2.81994
2.81467
2.80804
2.79931
2.78749
2.77184
2.75223
2.72872
2.70054
2.66599
2.62098
2.55996
2.4755
2.35689
2.18745
2.83765
2.8349
2.83194
2.82863
2.82483
2.82039
2.81507
2.80844
2.79992
2.78882
2.77453
2.75657
2.73436
2.70678
2.67176
2.62574
2.56357
2.47802
2.35842
2.188
2.83767
2.83498
2.83209
2.82886
2.82515
2.82078
2.8155
2.80894
2.80062
2.78998
2.77643
2.75933
2.73782
2.71054
2.67531
2.62875
2.56592
2.4797
2.35944
2.18837
2.83769
2.83503
2.83217
2.82899
2.82532
2.82099
2.81575
2.80924
2.80103
2.79061
2.77739
2.76066
2.73945
2.7123
2.677
2.63021
2.56708
2.48053
2.35996
2.18856
2.83768
2.83499
2.83211
2.82891
2.82522
2.82087
2.8156
2.80908
2.80087
2.79045
2.77721
2.76047
2.73924
2.7121
2.67681
2.63005
2.56696
2.48045
2.35991
2.18854
2.83766
2.83494
2.83202
2.82876
2.82501
2.82061
2.81531
2.80874
2.80042
2.78977
2.77621
2.75908
2.73754
2.71026
2.67506
2.62854
2.56577
2.47959
2.35938
2.18835
2.83763
2.83485
2.83184
2.82848
2.82462
2.82013
2.81478
2.80815
2.79964
2.78854
2.77422
2.75619
2.73392
2.70631
2.67134
2.62542
2.56335
2.47787
2.35833
2.18797
2.8376
2.83473
2.83163
2.82813
2.8241
2.81947
2.81414
2.80755
2.79888
2.78708
2.77136
2.75159
2.72793
2.6997
2.66525
2.62046
2.55963
2.47529
2.35678
2.18741
2.83757
2.83465
2.83146
2.82781
2.82358
2.81878
2.81374
2.80942
2.80157
2.79015
2.77399
2.75289
2.72806
2.68942
2.6561
2.61336
2.55452
2.47186
2.35476
2.1867
2.83757
2.83465
2.83144
2.82775
2.82341
2.81856
2.81553
2.81043
2.80375
2.71681
2.6867
2.64295
2.60378
2.54794
2.46764
2.35237
2.18587
2.83761
2.83477
2.83169
2.82823
2.82432
2.82125
2.81764
2.63772
2.59125
2.53991
2.46286
2.34979
2.18501
2.83767
2.83498
2.83216
2.82915
2.82665
2.82372
2.53246
2.53246
2.61236
2.58805
2.53193
2.45836
2.34747
2.18426
2.83774
2.83522
2.83267
2.83015
2.82829
2.82659
2.53251
2.52691
2.5269
2.53228
2.53255
2.5719
2.52554
2.45487
2.34574
2.18373
2.83778
2.83538
2.83301
2.83084
2.82961
2.53246
2.52691
2.52614
2.52613
2.5269
2.53241
2.55752
2.52115
2.45278
2.34477
2.18345
2.83778
2.83538
2.83301
2.83084
2.82993
2.53246
2.52691
2.52614
2.52614
2.52691
2.53227
2.55393
2.52115
2.45278
2.34477
2.18345
2.83774
2.83522
2.83267
2.83015
2.82905
2.53228
2.52691
2.52691
2.53194
2.53252
2.56398
2.52554
2.45487
2.34574
2.18374
2.83767
2.83498
2.83216
2.82915
2.82751
2.82522
2.53256
2.53241
2.53227
2.53252
2.57949
2.53193
2.45836
2.34747
2.18426
2.83761
2.83477
2.83169
2.82823
2.82432
2.82243
2.625
2.59125
2.53991
2.46286
2.3498
2.18501
2.83757
2.83465
2.83144
2.82775
2.82341
2.81856
2.81621
2.81202
2.67784
2.64295
2.60378
2.54794
2.46764
2.35237
2.18587
2.83757
2.83465
2.83146
2.82781
2.82358
2.81878
2.81374
2.80978
2.80186
2.79037
2.77304
2.75014
2.72287
2.68942
2.6561
2.61336
2.55452
2.47186
2.35476
2.1867
2.8376
2.83473
2.83163
2.82813
2.8241
2.81947
2.81414
2.80755
2.79888
2.78708
2.77136
2.75158
2.72793
2.69969
2.66524
2.62046
2.55963
2.47529
2.35678
2.18741
2.83763
2.83485
2.83184
2.82848
2.82462
2.82012
2.81478
2.80815
2.79964
2.78854
2.77421
2.75619
2.73392
2.70631
2.67134
2.62542
2.56335
2.47787
2.35833
2.18797
2.83766
2.83494
2.83202
2.82876
2.82501
2.82061
2.81531
2.80874
2.80042
2.78977
2.7762
2.75908
2.73754
2.71025
2.67506
2.62854
2.56577
2.47959
2.35938
2.18835
2.83768
2.83499
2.83211
2.82891
2.82522
2.82086
2.8156
2.80908
2.80087
2.79045
2.77721
2.76046
2.73924
2.71209
2.67681
2.63005
2.56696
2.48045
2.35991
2.18854
2.83766
2.83493
2.832
2.82875
2.82501
2.82062
2.81532
2.80879
2.80057
2.79013
2.77687
2.76009
2.73885
2.71171
2.67646
2.62976
2.56673
2.48029
2.35981
2.18851
2.83764
2.83487
2.83189
2.82857
2.82475
2.82029
2.81495
2.80837
2.80005
2.78939
2.77578
2.7586
2.73702
2.70973
2.67458
2.62817
2.56549
2.47941
2.35927
2.18831
2.8376
2.83475
2.83167
2.82821
2.82423
2.81962
2.81421
2.80759
2.79911
2.78801
2.77361
2.75546
2.73307
2.70544
2.67057
2.62484
2.56295
2.47762
2.35819
2.18792
2.83756
2.8346
2.83138
2.82771
2.82344
2.81855
2.81313
2.8066
2.79806
2.78632
2.77046
2.75034
2.72638
2.69803
2.6638
2.61951
2.55904
2.47494
2.35659
2.18734
2.83752
2.83448
2.83111
2.82717
2.82244
2.81699
2.81179
2.80804
2.80046
2.78928
2.77303
2.7514
2.72593
2.6861
2.6532
2.6118
2.55368
2.4714
2.35452
2.18662
2.83751
2.83443
2.83099
2.82684
2.82157
2.81484
2.81289
2.80811
2.80216
2.71344
2.68251
2.63737
2.60156
2.54686
2.46708
2.35209
2.18578
2.83754
2.83453
2.83119
2.82723
2.82232
2.81858
2.81447
2.63305
2.58884
2.53875
2.46227
2.34951
2.18491
2.8376
2.83476
2.83168
2.82824
2.82526
2.82136
2.50836
2.50837
2.60854
2.58571
2.53089
2.45783
2.3472
2.18417
2.83768
2.83502
2.83226
2.82941
2.82721
2.82499
2.50848
2.49715
2.49715
2.50793
2.50858
2.57023
2.52473
2.45443
2.34551
2.18366
2.83773
2.83519
2.83266
2.83026
2.82887
2.50837
2.49715
2.49579
2.49578
2.49715
2.5082
2.55655
2.52053
2.45242
2.34458
2.18338
2.83773
2.83519
2.83266
2.83026
2.82928
2.50839
2.49716
2.49579
2.49579
2.49715
2.50789
2.5531
2.52053
2.45242
2.34458
2.18338
2.83768
2.83502
2.83226
2.82941
2.82816
2.50794
2.49715
2.49715
2.50716
2.50848
2.56271
2.52473
2.45443
2.34551
2.18366
2.8376
2.83476
2.83168
2.82824
2.82626
2.82322
2.50858
2.5082
2.5079
2.50848
2.57745
2.53089
2.45783
2.3472
2.18417
2.83754
2.83453
2.83119
2.82723
2.82232
2.81988
2.62067
2.58884
2.53875
2.46227
2.34951
2.18491
2.83751
2.83443
2.83099
2.82684
2.82157
2.81484
2.81316
2.80939
2.67308
2.63737
2.60155
2.54686
2.46709
2.35209
2.18578
2.83752
2.83448
2.83111
2.82717
2.82244
2.81699
2.81179
2.80798
2.80049
2.78941
2.77199
2.74835
2.72009
2.6861
2.6532
2.6118
2.55368
2.4714
2.35452
2.18662
2.83756
2.8346
2.83138
2.82771
2.82344
2.81855
2.81313
2.8066
2.79806
2.78631
2.77046
2.75034
2.72638
2.69803
2.6638
2.61951
2.55904
2.47494
2.35659
2.18735
2.8376
2.83475
2.83167
2.82821
2.82423
2.81962
2.81421
2.80759
2.79911
2.78801
2.77361
2.75545
2.73307
2.70543
2.67057
2.62484
2.56296
2.47762
2.35819
2.18792
2.83764
2.83487
2.83189
2.82856
2.82475
2.82029
2.81495
2.80837
2.80004
2.78939
2.77578
2.7586
2.73702
2.70973
2.67458
2.62817
2.56549
2.47941
2.35927
2.18831
2.83766
2.83493
2.832
2.82875
2.82501
2.82062
2.81532
2.80879
2.80057
2.79013
2.77687
2.76009
2.73885
2.71171
2.67646
2.62976
2.56673
2.48029
2.35981
2.18851
2.83763
2.83484
2.83185
2.82853
2.82473
2.82028
2.81494
2.80838
2.80015
2.78969
2.7764
2.75959
2.73832
2.71118
2.67598
2.62937
2.56643
2.48008
2.35968
2.18846
2.8376
2.83476
2.83171
2.8283
2.8244
2.81985
2.81446
2.80786
2.79953
2.78886
2.77521
2.75795
2.73632
2.70903
2.67396
2.62767
2.56512
2.47916
2.35912
2.18826
2.83756
2.83462
2.83143
2.82784
2.8237
2.81894
2.81345
2.80683
2.79839
2.78729
2.7728
2.75447
2.73193
2.70427
2.66954
2.62409
2.56244
2.47729
2.358
2.18785
2.8375
2.83443
2.83105
2.82715
2.82257
2.81732
2.81176
2.80533
2.79695
2.7853
2.76925
2.74865
2.72427
2.69574
2.66183
2.61827
2.55829
2.4745
2.35635
2.18726
2.83745
2.83425
2.83064
2.82632
2.8209
2.81422
2.8088
2.80593
2.79878
2.78802
2.77164
2.74912
2.72253
2.68078
2.64855
2.60974
2.5526
2.47081
2.35422
2.18651
2.83742
2.83415
2.83039
2.82561
2.81866
0.906557
2.80678
2.80274
2.7984
2.70582
2.6735
0.84812
2.59885
2.54552
2.46639
2.35175
2.18566
2.83745
2.83422
2.83053
2.82587
2.81919
2.81234
2.80756
2.62296
2.58561
2.53726
2.46154
2.34916
2.1848
2.83751
2.83446
2.83106
2.82701
2.82309
2.81589
2.46898
2.46899
2.60002
2.58186
2.52952
2.45716
2.34689
2.18408
2.83759
2.83474
2.83171
2.82842
2.82552
2.82107
2.46911
0.792719
0.792719
2.4683
2.46922
2.56752
2.52364
2.45389
2.34527
2.18359
2.83765
2.83494
2.83218
2.82948
2.82779
2.46898
0.792721
0.792328
0.792327
0.792718
2.46861
2.55515
2.51969
2.45199
2.34438
2.18333
2.83765
2.83494
2.83218
2.82948
2.82834
2.469
0.792722
0.792328
0.792327
0.792719
2.4682
2.55193
2.51969
2.45199
2.34437
2.18333
2.83759
2.83474
2.83171
2.82842
2.82684
2.46831
0.792721
0.792719
2.46718
2.46911
2.56081
2.52364
2.45389
2.34527
2.18359
2.83751
2.83446
2.83106
2.82701
2.82431
2.81844
2.46921
2.46861
2.46821
2.4691
2.57409
2.52952
2.45716
2.34689
2.18408
2.83745
2.83422
2.83053
2.82587
2.81919
2.81415
2.61121
2.58561
2.53726
2.46154
2.34916
2.1848
2.83742
2.83415
2.83039
2.82561
2.81866
0.906557
2.80623
2.80339
2.66288
0.84812
2.59885
2.54552
2.46639
2.35175
2.18566
2.83745
2.83425
2.83064
2.82632
2.8209
2.81422
2.8088
2.80492
2.79824
2.78802
2.77045
2.74542
2.71515
2.68078
2.64855
2.60974
2.5526
2.47081
2.35422
2.18652
2.8375
2.83443
2.83105
2.82715
2.82257
2.81732
2.81175
2.80532
2.79695
2.78529
2.76924
2.74865
2.72427
2.69574
2.66183
2.61827
2.55829
2.4745
2.35635
2.18726
2.83756
2.83462
2.83143
2.82784
2.8237
2.81894
2.81345
2.80683
2.79839
2.78729
2.7728
2.75447
2.73193
2.70426
2.66954
2.62409
2.56244
2.47729
2.358
2.18785
2.8376
2.83476
2.83171
2.8283
2.8244
2.81985
2.81446
2.80786
2.79953
2.78886
2.7752
2.75795
2.73632
2.70903
2.67396
2.62767
2.56512
2.47916
2.35912
2.18826
2.83763
2.83484
2.83185
2.82853
2.82473
2.82028
2.81494
2.80838
2.80015
2.78969
2.7764
2.75958
2.73832
2.71118
2.67598
2.62937
2.56643
2.48008
2.35968
2.18846
2.83759
2.83473
2.83167
2.82827
2.82439
2.81987
2.81448
2.8079
2.79964
2.78916
2.77584
2.75899
2.73769
2.71057
2.67543
2.62891
2.56608
2.47983
2.35953
2.18841
2.83756
2.83464
2.83149
2.82799
2.82398
2.81935
2.81389
2.80727
2.79893
2.78823
2.77453
2.7572
2.73552
2.70824
2.67325
2.6271
2.5647
2.47887
2.35895
2.18819
2.83751
2.83446
2.83115
2.82741
2.82311
2.81819
2.81261
2.80598
2.79756
2.78645
2.77187
2.75337
2.73069
2.70301
2.66845
2.62327
2.56187
2.47692
2.35779
2.18778
2.83744
2.83423
2.83067
2.82654
2.82164
2.81605
2.8103
2.80395
2.79573
2.78415
2.7679
2.74684
2.72206
2.69342
2.65992
2.61699
2.55749
2.47401
2.35608
2.18717
2.83737
2.83398
2.83013
2.82541
2.81938
2.81187
2.80588
2.80359
2.79688
2.7866
2.77005
2.74654
2.71868
2.67577
2.64489
2.60774
2.5515
2.4702
2.3539
2.18641
2.83733
2.83383
2.82974
2.82437
2.81627
0.905086
0.904411
0.903131
0.902841
0.87093
0.860077
0.846048
2.59605
2.54415
2.46569
2.3514
2.18555
2.83734
2.83388
2.82981
2.82446
2.81616
0.90621
0.904112
0.843411
2.58247
2.5358
2.46084
2.34883
2.18471
2.83741
2.83412
2.83036
2.82571
2.82069
0.907348
0.784477
0.78447
0.836322
2.57738
2.5282
2.45657
2.34664
2.18402
2.83749
2.83443
2.8311
2.82735
2.8236
0.910083
0.784489
0.781841
0.78184
0.784467
0.784487
2.56403
2.52263
2.45348
2.34512
2.18357
2.83755
2.83465
2.83163
2.82862
2.82658
0.784479
0.781842
0.78183
0.781829
0.781839
0.784475
2.55358
2.51894
2.45171
2.3443
2.18334
2.83755
2.83465
2.83163
2.82862
2.82728
0.78448
0.781842
0.781829
0.781828
0.781838
0.78445
2.55061
2.51894
2.45171
2.3443
2.18334
2.83749
2.83443
2.8311
2.82735
2.82534
0.78447
0.78184
0.781839
0.784413
0.784487
2.55869
2.52263
2.45348
2.34512
2.18357
2.83741
2.83412
2.83036
2.82571
2.82211
0.908412
0.78449
0.784476
0.784454
0.784485
2.57009
2.5282
2.45657
2.34664
2.18402
2.83734
2.83388
2.82981
2.82446
2.81616
0.906659
0.839668
2.58247
2.5358
2.46084
2.34883
2.18471
2.83733
2.83383
2.82974
2.82437
2.81627
0.905086
0.903817
0.902992
0.856277
0.846048
2.59605
2.54415
2.46569
2.3514
2.18555
2.83737
2.83398
2.83013
2.82541
2.81938
2.81187
2.80588
2.80098
2.79502
2.78644
2.76872
2.74199
2.70873
2.67577
2.64489
2.60774
2.5515
2.47021
2.35391
2.18641
2.83744
2.83423
2.83067
2.82653
2.82164
2.81605
2.8103
2.80395
2.79573
2.78415
2.7679
2.74684
2.72206
2.69342
2.65992
2.61699
2.55749
2.47401
2.35608
2.18717
2.83751
2.83446
2.83115
2.82741
2.82311
2.81819
2.8126
2.80598
2.79756
2.78645
2.77187
2.75337
2.73069
2.70301
2.66845
2.62327
2.56187
2.47692
2.35779
2.18778
2.83756
2.83464
2.83149
2.82799
2.82398
2.81934
2.81389
2.80727
2.79893
2.78823
2.77453
2.7572
2.73552
2.70824
2.67325
2.6271
2.5647
2.47887
2.35895
2.18819
2.83759
2.83473
2.83167
2.82827
2.82439
2.81987
2.81448
2.80789
2.79964
2.78916
2.77583
2.75898
2.73769
2.71057
2.67543
2.62891
2.56608
2.47983
2.35953
2.18841
2.83755
2.83461
2.83146
2.82798
2.82401
2.81942
2.81398
2.80736
2.79908
2.78858
2.77522
2.75834
2.73703
2.70993
2.67485
2.62842
2.5657
2.47956
2.35937
2.18835
2.83752
2.8345
2.83126
2.82765
2.82354
2.81881
2.81329
2.80663
2.79827
2.78755
2.77381
2.75642
2.7347
2.70744
2.67254
2.62652
2.56426
2.47856
2.35876
2.18813
2.83745
2.83429
2.83085
2.82697
2.82251
2.81743
2.81175
2.8051
2.79669
2.78557
2.77091
2.75227
2.7295
2.70183
2.66743
2.62248
2.56131
2.47655
2.35757
2.1877
2.83737
2.83401
2.83028
2.82592
2.82075
2.81487
2.80897
2.80264
2.79452
2.78297
2.76656
2.74516
2.72014
2.69148
2.65831
2.61587
2.55675
2.47355
2.35582
2.18708
2.83728
2.83372
2.82962
2.82456
2.81804
2.80996
2.80368
2.80161
2.7952
2.78519
2.7685
2.7443
2.71566
2.67239
2.64224
2.60613
2.55056
2.46966
2.35361
2.18631
2.83723
2.83351
2.82911
2.82326
2.81435
0.90417
0.903391
0.90218
0.902159
0.869515
0.858456
0.844791
2.59393
2.54307
2.46511
2.3511
2.18546
2.83724
2.83353
2.82912
2.82321
2.81397
0.905189
0.902935
0.841709
2.5802
2.53476
2.46034
2.3486
2.18464
2.8373
2.83377
2.82968
2.82452
2.81873
0.90639
0.774213
0.774204
0.834847
2.57448
2.52746
2.45629
2.34654
2.18401
2.83739
2.83409
2.83047
2.82632
2.822
0.909401
0.7742
0.772353
0.772352
0.774347
0.774147
2.56179
2.52229
2.4535
2.34519
2.18363
2.83746
2.83433
2.83106
2.82774
2.82542
0.774215
0.772355
0.772606
0.772604
0.77235
0.774261
2.55213
2.51891
2.45194
2.34449
2.18345
2.83746
2.83433
2.83106
2.82774
2.82623
0.774212
0.772354
0.772605
0.772603
0.772349
0.77432
2.54933
2.51891
2.45194
2.34449
2.18345
2.83739
2.83409
2.83047
2.82632
2.82399
0.77435
0.772352
0.77235
0.77448
0.774198
2.55692
2.52229
2.4535
2.34519
2.18363
2.8373
2.83377
2.82968
2.82452
2.82031
0.907575
0.774151
0.774263
0.774322
0.774199
2.56749
2.52746
2.45629
2.34654
2.18401
2.83724
2.83353
2.82912
2.82321
2.81397
0.90564
0.838038
2.5802
2.53476
2.46034
2.3486
2.18464
2.83723
2.83351
2.82911
2.82326
2.81435
0.90417
0.902675
0.901953
0.854508
0.844792
2.59393
2.54307
2.46511
2.3511
2.18546
2.83728
2.83372
2.82962
2.82456
2.81804
2.80996
2.80368
2.79849
2.79305
2.78497
2.76709
2.73939
2.7049
2.67239
2.64224
2.60613
2.55056
2.46966
2.35361
2.18631
2.83737
2.83401
2.83028
2.82592
2.82075
2.81487
2.80897
2.80264
2.79452
2.78296
2.76655
2.74516
2.72013
2.69148
2.65831
2.61587
2.55675
2.47355
2.35582
2.18708
2.83745
2.83429
2.83085
2.82697
2.8225
2.81743
2.81175
2.8051
2.79669
2.78557
2.7709
2.75227
2.7295
2.70183
2.66743
2.62248
2.56131
2.47655
2.35757
2.1877
2.83752
2.8345
2.83126
2.82765
2.82354
2.8188
2.81329
2.80663
2.79827
2.78755
2.7738
2.75642
2.7347
2.70744
2.67254
2.62652
2.56426
2.47856
2.35876
2.18813
2.83755
2.83461
2.83146
2.82798
2.82401
2.81942
2.81398
2.80736
2.79908
2.78857
2.77522
2.75834
2.73703
2.70993
2.67485
2.62842
2.5657
2.47956
2.35937
2.18835
2.83751
2.83448
2.83125
2.82767
2.82362
2.81896
2.81346
2.8068
2.7985
2.78797
2.77459
2.75768
2.73637
2.70929
2.67427
2.62793
2.56532
2.47929
2.3592
2.18828
2.83747
2.83436
2.83101
2.8273
2.82308
2.81826
2.81268
2.80598
2.7976
2.78686
2.77308
2.75565
2.73391
2.70668
2.67185
2.62595
2.56383
2.47825
2.35858
2.18806
2.8374
2.83412
2.83056
2.82653
2.82192
2.81671
2.81094
2.80425
2.79583
2.78469
2.76996
2.75124
2.72842
2.70079
2.66652
2.62176
2.56078
2.47618
2.35735
2.18762
2.8373
2.8338
2.8299
2.82534
2.81994
2.81383
2.80779
2.80142
2.79333
2.78179
2.76525
2.74366
2.71852
2.68994
2.65701
2.61492
2.55609
2.47311
2.35556
2.18699
2.8372
2.83345
2.82914
2.82379
2.81689
2.80838
2.80188
2.79993
2.79367
2.78384
2.767
2.74235
2.71333
2.66999
2.64035
2.60491
2.54979
2.46917
2.35333
2.18622
2.83714
2.83321
2.82853
2.82229
2.8128
0.903435
0.902603
0.90153
0.901866
0.868649
0.857394
0.843952
2.59249
2.54226
2.46464
2.35084
2.18538
2.83713
2.8332
2.82849
2.82213
2.81221
0.904413
0.902174
0.840657
2.57888
2.53413
2.46
2.34841
2.18459
2.8372
2.83343
2.82905
2.82345
2.81713
0.905737
0.765079
0.765048
0.833963
2.57294
2.52734
2.45623
2.34652
2.18402
2.83729
2.83377
2.82988
2.82534
2.8206
0.909109
0.765105
0.764326
0.764324
0.765535
0.764185
2.56055
2.52281
2.45379
2.34536
2.18371
2.83736
2.83402
2.8305
2.82687
2.82431
0.765081
0.764328
0.764781
0.764779
0.764322
0.765352
2.55101
2.51983
2.45248
2.3448
2.18359
2.83736
2.83402
2.8305
2.82687
2.8252
0.765053
0.764327
0.76478
0.764777
0.76432
0.765423
2.54824
2.51983
2.45248
2.3448
2.18359
2.83729
2.83377
2.82987
2.82534
2.82275
0.765539
0.764325
0.764323
0.765959
0.765179
2.55576
2.52281
2.45379
2.34536
2.18371
2.8372
2.83343
2.82905
2.82345
2.81879
0.907063
0.764188
0.765356
0.765426
0.765181
2.56619
2.52734
2.45623
2.34652
2.18402
2.83713
2.8332
2.82849
2.82213
2.81221
0.904878
0.837009
2.57888
2.53413
2.46
2.34841
2.18459
2.83714
2.83321
2.82853
2.82229
2.81279
0.903435
0.901896
0.901286
0.853476
0.843952
2.59249
2.54226
2.46464
2.35084
2.18538
2.8372
2.83345
2.82914
2.82379
2.81689
2.80838
2.80188
2.79648
2.79153
2.78374
2.76568
2.73719
2.70209
2.66999
2.64035
2.60491
2.54979
2.46917
2.35333
2.18622
2.8373
2.8338
2.8299
2.82534
2.81994
2.81383
2.80779
2.80142
2.79333
2.78178
2.76525
2.74366
2.71852
2.68993
2.65701
2.61492
2.55609
2.47311
2.35556
2.18699
2.8374
2.83412
2.83056
2.82653
2.82192
2.81671
2.81094
2.80425
2.79583
2.78469
2.76996
2.75124
2.72842
2.70079
2.66652
2.62176
2.56078
2.47618
2.35735
2.18762
2.83747
2.83436
2.83101
2.8273
2.82308
2.81826
2.81268
2.80598
2.7976
2.78686
2.77307
2.75565
2.73391
2.70667
2.67185
2.62595
2.56383
2.47825
2.35858
2.18806
2.83751
2.83448
2.83125
2.82767
2.82362
2.81896
2.81346
2.8068
2.7985
2.78797
2.77459
2.75768
2.73637
2.70929
2.67427
2.62793
2.56532
2.47929
2.3592
2.18828
2.83746
2.83435
2.83102
2.82736
2.82323
2.81849
2.81294
2.80624
2.79791
2.78736
2.77396
2.75704
2.73572
2.70867
2.67371
2.62746
2.56494
2.47901
2.35903
2.18822
2.83742
2.83421
2.83077
2.82695
2.82264
2.81773
2.81208
2.80535
2.79695
2.78618
2.77237
2.75492
2.73316
2.70595
2.6712
2.62541
2.5634
2.47795
2.35839
2.18799
2.83734
2.83395
2.83026
2.82611
2.82137
2.81604
2.8102
2.80347
2.79504
2.78388
2.7691
2.75032
2.72746
2.69985
2.66568
2.62108
2.56026
2.47582
2.35713
2.18754
2.83723
2.83359
2.82954
2.82481
2.81922
2.81294
2.80679
2.8004
2.79232
2.78077
2.76416
2.74243
2.7172
2.68864
2.65588
2.61403
2.55545
2.47268
2.35531
2.1869
2.83712
2.83321
2.8287
2.82312
2.81595
2.80715
2.8005
2.79855
2.79237
2.78264
2.76571
2.74077
2.71153
2.66817
2.6388
2.60377
2.549
2.46866
2.35304
2.18611
2.83705
2.83293
2.82802
2.82149
2.8116
0.902918
0.902005
0.901022
0.901693
0.753377
0.753398
0.753368
0.868027
0.856636
0.843314
2.59114
2.54138
2.46409
2.35053
2.18527
2.83704
2.8329
2.82794
2.82126
2.8109
0.90383
0.901627
0.753401
0.753743
0.754377
0.754534
0.75407
0.753474
0.753357
0.83993
2.57753
2.53327
2.45946
2.34811
2.18449
2.8371
2.83313
2.8285
2.82259
2.81586
0.905233
0.753402
0.754245
0.756059
0.757477
0.757749
0.75683
0.755069
0.753622
0.833333
2.57172
2.52669
2.45578
2.34626
2.18394
2.8372
2.83348
2.82935
2.82454
2.81945
0.908946
0.753746
0.756061
0.757413
0.758088
0.758085
0.757404
0.757431
0.754674
0.753415
2.55958
2.52244
2.45349
2.34517
2.18365
2.83727
2.83374
2.83
2.82613
2.82334
0.753382
0.754381
0.757481
0.758091
0.758542
0.758538
0.758081
0.758457
0.755836
0.75354
2.55005
2.51964
2.45227
2.34466
2.18354
2.83727
2.83374
2.83
2.82613
2.82429
0.753403
0.754539
0.757755
0.758091
0.758541
0.758537
0.758081
0.758663
0.756115
0.753608
2.54728
2.51964
2.45227
2.34466
2.18354
2.8372
2.83348
2.82935
2.82454
2.8217
0.753374
0.754076
0.756838
0.757411
0.758087
0.758084
0.757403
0.758054
0.755301
0.753427
2.55481
2.52244
2.45349
2.34517
2.18365
2.8371
2.83313
2.8285
2.82259
2.81757
0.906675
0.753479
0.755075
0.757438
0.758464
0.758667
0.758056
0.75636
0.75407
0.75342
2.56514
2.52669
2.45578
2.34626
2.18394
2.83704
2.8329
2.82794
2.82126
2.8109
0.904305
0.753363
0.753627
0.754679
0.755841
0.756119
0.755303
0.754071
0.753384
0.836274
2.57753
2.53327
2.45946
2.34811
2.18449
2.83705
2.83293
2.82802
2.82149
2.8116
0.902918
0.901327
0.900787
0.753418
0.753543
0.75361
0.753426
0.75342
0.852785
0.843315
2.59114
2.54138
2.46409
2.35053
2.18527
2.83712
2.83321
2.8287
2.82312
2.81595
2.80715
2.8005
2.79488
2.79026
2.78266
2.76444
2.73537
2.69998
2.66817
2.6388
2.60377
2.549
2.46866
2.35304
2.18611
2.83723
2.83359
2.82954
2.82481
2.81922
2.81294
2.80679
2.8004
2.79232
2.78077
2.76416
2.74242
2.7172
2.68864
2.65588
2.61403
2.55545
2.47268
2.35531
2.1869
2.83734
2.83395
2.83026
2.82611
2.82137
2.81604
2.8102
2.80347
2.79504
2.78388
2.7691
2.75032
2.72746
2.69985
2.66568
2.62108
2.56026
2.47582
2.35713
2.18754
2.83742
2.83421
2.83077
2.82695
2.82264
2.81773
2.81208
2.80535
2.79695
2.78618
2.77237
2.75492
2.73316
2.70595
2.6712
2.62541
2.5634
2.47795
2.35839
2.18799
2.83746
2.83435
2.83102
2.82736
2.82323
2.81849
2.81294
2.80624
2.79791
2.78736
2.77396
2.75704
2.73572
2.70867
2.67371
2.62746
2.56494
2.47902
2.35903
2.18822
2.83742
2.83421
2.83079
2.82704
2.82283
2.81802
2.81242
2.80568
2.79733
2.78676
2.77334
2.75641
2.7351
2.70808
2.67317
2.627
2.56458
2.47875
2.35887
2.18816
2.83737
2.83406
2.83052
2.8266
2.8222
2.81722
2.81151
2.80474
2.79632
2.78554
2.7717
2.75422
2.73246
2.70528
2.67059
2.62489
2.563
2.47766
2.35821
2.18793
2.83729
2.83378
2.82998
2.8257
2.82085
2.81543
2.80953
2.80278
2.79433
2.78316
2.76834
2.7495
2.7266
2.69899
2.6649
2.62042
2.55976
2.47547
2.35692
2.18747
2.83717
2.83339
2.8292
2.82432
2.81859
2.81219
2.80599
2.7996
2.79154
2.78
2.76333
2.74149
2.71614
2.68751
2.65482
2.61315
2.55479
2.47223
2.35505
2.18681
2.83705
2.83298
2.82831
2.82254
2.81519
2.80626
2.79958
2.79758
2.79144
2.78173
2.76478
2.73972
2.71027
2.66675
2.63737
2.60257
2.54814
2.46809
2.35271
2.186
2.83696
2.83267
2.82758
2.82083
2.81075
0.902633
0.901672
0.900609
0.901039
0.867443
0.856095
0.84278
2.58958
2.54027
2.46337
2.35013
2.18512
2.83695
2.83263
2.82747
2.82058
2.81005
0.903503
0.901177
0.839342
2.57568
2.53192
2.45859
2.34762
2.18431
2.83701
2.83286
2.82804
2.82196
2.81501
0.904862
0.754117
0.753919
0.832766
2.56987
2.52501
2.45475
2.34567
2.18372
2.83711
2.83322
2.82892
2.82397
2.8187
0.908365
0.754214
0.753603
0.753598
0.754304
0.754202
2.55799
2.52043
2.45226
2.34447
2.18339
2.83718
2.83349
2.82959
2.82561
2.82268
0.754124
0.753608
0.753874
0.753868
0.753591
0.754061
2.54906
2.51748
2.45093
2.34389
2.18325
2.83718
2.83349
2.82959
2.82561
2.82364
0.753929
0.753608
0.753874
0.753868
0.753592
0.754213
2.54642
2.51748
2.45093
2.34389
2.18325
2.83711
2.83322
2.82892
2.82397
2.821
0.754315
0.753601
0.753596
0.754406
0.753963
2.55355
2.52043
2.45226
2.34447
2.18339
2.83701
2.83286
2.82804
2.82196
2.81677
0.906249
0.754214
0.754072
0.75422
0.753965
2.56335
2.52501
2.45475
2.34567
2.18372
2.83695
2.83263
2.82747
2.82058
2.81005
0.903976
0.835742
2.57569
2.53192
2.4586
2.34762
2.18431
2.83696
2.83267
2.82758
2.82083
2.81075
0.902632
0.900909
0.900328
0.852116
0.84278
2.58958
2.54027
2.46338
2.35013
2.18512
2.83705
2.83298
2.82831
2.82254
2.81519
2.80626
2.79958
2.79386
2.7891
2.78155
2.76336
2.73434
2.69864
2.66675
2.63737
2.60257
2.54814
2.4681
2.35271
2.186
2.83717
2.83339
2.8292
2.82432
2.81859
2.81219
2.80599
2.7996
2.79154
2.78
2.76333
2.74149
2.71614
2.68751
2.65482
2.61315
2.55479
2.47224
2.35505
2.18681
2.83729
2.83378
2.82998
2.8257
2.82085
2.81543
2.80953
2.80277
2.79433
2.78316
2.76834
2.7495
2.7266
2.69899
2.6649
2.62043
2.55976
2.47547
2.35692
2.18747
2.83737
2.83406
2.83052
2.8266
2.8222
2.81722
2.81151
2.80474
2.79632
2.78554
2.7717
2.75422
2.73246
2.70528
2.67059
2.62489
2.563
2.47766
2.35821
2.18793
2.83742
2.83421
2.83079
2.82704
2.82283
2.81802
2.81242
2.80568
2.79733
2.78676
2.77334
2.75641
2.7351
2.70808
2.67317
2.627
2.56458
2.47875
2.35887
2.18816
2.83737
2.83407
2.83056
2.82672
2.82243
2.81755
2.8119
2.80513
2.79675
2.78617
2.77274
2.7558
2.73451
2.70752
2.67267
2.62657
2.56424
2.47851
2.35872
2.18811
2.83732
2.83391
2.83027
2.82626
2.82177
2.81671
2.81095
2.80415
2.79571
2.78491
2.77106
2.75357
2.73181
2.70465
2.67002
2.62441
2.56262
2.47739
2.35805
2.18787
2.83723
2.83361
2.8297
2.82531
2.82036
2.81485
2.80889
2.80212
2.79367
2.78248
2.76765
2.74877
2.72584
2.69824
2.6642
2.61983
2.5593
2.47515
2.35673
2.18739
2.83711
2.8332
2.82888
2.82387
2.81801
2.81152
2.80526
2.79887
2.79083
2.77929
2.7626
2.74068
2.71524
2.68655
2.65389
2.61236
2.55419
2.47182
2.35481
2.18672
2.83698
2.83277
2.82794
2.82202
2.81452
2.8055
2.79876
2.79677
2.79065
2.78094
2.764
2.73888
2.70928
2.66558
2.63618
2.60151
2.54733
2.46756
2.35241
2.18588
2.83689
2.83244
2.82718
2.82026
2.81003
0.902379
0.901415
0.90024
0.900459
0.86695
0.855667
0.842341
2.58822
2.53924
2.46268
2.34973
2.18498
2.83687
2.83238
2.82705
2.81999
2.80931
0.903252
0.900793
0.838875
2.57411
2.53064
2.45773
2.34712
2.18412
2.83693
2.83261
2.82763
2.8214
2.81432
0.904536
0.75096
0.750942
0.832286
2.5681
2.52343
2.45366
2.34503
2.18347
2.83703
2.83298
2.82853
2.82346
2.81809
0.907854
0.751004
0.750422
0.750413
0.75101
0.750965
2.55653
2.51857
2.45093
2.34368
2.18308
2.8371
2.83325
2.82922
2.82513
2.82212
0.750971
0.750431
0.75055
0.750539
0.750403
0.750958
2.5482
2.51547
2.44945
2.343
2.1829
2.8371
2.83325
2.82922
2.82513
2.82309
0.750957
0.75043
0.750549
0.750539
0.750403
0.750968
2.5457
2.51547
2.44945
2.343
2.1829
2.83703
2.83298
2.82853
2.82346
2.82042
0.75103
0.750421
0.750411
0.751055
0.750953
2.55242
2.51857
2.45093
2.34368
2.18308
2.83693
2.83261
2.82763
2.8214
2.81612
0.905862
0.750986
0.750977
0.750981
0.750958
2.56162
2.52343
2.45366
2.34503
2.18347
2.83687
2.83238
2.82705
2.81999
2.80931
0.903718
0.835306
2.57411
2.53065
2.45773
2.34712
2.18412
2.83689
2.83244
2.82718
2.82026
2.81003
0.902378
0.900565
0.899926
0.851571
0.842341
2.58822
2.53924
2.46268
2.34973
2.18498
2.83698
2.83277
2.82794
2.82202
2.81452
2.8055
2.79876
2.79304
2.78807
2.78054
2.7624
2.73349
2.69763
2.66558
2.63618
2.60151
2.54733
2.46756
2.35241
2.18588
2.83711
2.8332
2.82888
2.82387
2.81801
2.81152
2.80526
2.79887
2.79083
2.77929
2.7626
2.74068
2.71524
2.68655
2.65389
2.61236
2.55419
2.47182
2.35481
2.18672
2.83723
2.83361
2.8297
2.82531
2.82036
2.81485
2.80889
2.80212
2.79367
2.78248
2.76764
2.74877
2.72584
2.69823
2.6642
2.61983
2.5593
2.47515
2.35673
2.18739
2.83732
2.83391
2.83027
2.82626
2.82177
2.81671
2.81095
2.80415
2.79571
2.78491
2.77106
2.75357
2.73181
2.70465
2.67002
2.62441
2.56262
2.47739
2.35805
2.18787
2.83737
2.83407
2.83056
2.82672
2.82243
2.81755
2.8119
2.80513
2.79675
2.78616
2.77274
2.7558
2.7345
2.70752
2.67267
2.62658
2.56424
2.47851
2.35872
2.18811
2.83732
2.83393
2.83032
2.82639
2.82202
2.81707
2.81136
2.80456
2.79616
2.78557
2.77214
2.75521
2.73394
2.70699
2.67221
2.62618
2.56393
2.47828
2.35857
2.18805
2.83727
2.83376
2.83002
2.82591
2.82133
2.8162
2.81039
2.80355
2.79509
2.78429
2.77043
2.75295
2.7312
2.70408
2.66951
2.62398
2.56228
2.47714
2.35789
2.18781
2.83717
2.83345
2.82942
2.82493
2.81987
2.81429
2.80827
2.80146
2.793
2.78181
2.76697
2.74808
2.72515
2.69757
2.66359
2.61932
2.5589
2.47486
2.35655
2.18733
2.83704
2.83302
2.82856
2.82343
2.81746
2.81087
2.80455
2.79813
2.79009
2.77855
2.76185
2.73991
2.71445
2.68576
2.65315
2.61172
2.5537
2.47148
2.3546
2.18664
2.83691
2.83255
2.82759
2.82152
2.81388
2.80474
2.79792
2.79594
2.78982
2.78014
2.76319
2.73802
2.70836
2.66464
2.63528
2.60072
2.54672
2.46713
2.35215
2.18579
2.83681
2.83221
2.82679
2.81971
2.80932
0.902094
0.901113
0.899898
0.900102
0.86657
0.855306
0.84201
2.58729
2.5385
2.46217
2.34943
2.18486
2.83679
2.83214
2.82664
2.81941
2.80855
0.902962
0.90046
0.838512
2.57313
2.52982
2.45712
2.34675
2.18398