/*--------------------------------*- C++ -*----------------------------------*\
  =========                 |
  \\      /  F ield         | OpenFOAM: The Open Source CFD Toolbox
   \\    /   O peration     | Website:  https://openfoam.org
    \\  /    A nd           | Version:  11
     \\/     M anipulation  |
\*---------------------------------------------------------------------------*/
FoamFile
{
    format      ascii;
    class       volVectorField;
    location    "0.0001";
    object      U;
}
// * * * * * * * * * * * * * * * * * * * * * * * * * * * * * * * * * * * * * //

dimensions      [0 1 -1 0 0 0 0];

internalField   nonuniform List<vector> 
21740
(
(0.996682 0.00281265 0.0027304)
(1.04555 0.00881681 0.00836468)
(1.14411 0.0157761 0.0144146)
(1.29705 0.023754 0.0208886)
(1.51445 0.0319753 0.0274041)
(1.81524 0.0390854 0.0331077)
(2.22855 0.0451001 0.0370583)
(2.78946 0.0547671 0.0391952)
(3.53141 0.0763367 0.0405136)
(4.48309 0.11861 0.042377)
(5.68032 0.182224 0.0455445)
(7.19455 0.254225 0.0493587)
(9.1674 0.313906 0.051792)
(11.8367 0.343133 0.0506831)
(15.5571 0.331919 0.045311)
(20.8279 0.288541 0.0368738)
(28.3608 0.228761 0.0276515)
(39.2496 0.164453 0.0190893)
(55.3345 0.100889 0.0117457)
(80.8494 0.0367843 0.00450864)
(1.00832 0.00768777 0.00318331)
(1.05854 0.0242121 0.00986361)
(1.15912 0.0437139 0.0173817)
(1.31341 0.0664772 0.0259551)
(1.53013 0.0899443 0.0351116)
(1.82904 0.108828 0.043272)
(2.24514 0.121296 0.0482798)
(2.8217 0.143632 0.0498517)
(3.59657 0.202931 0.0499867)
(4.59038 0.332649 0.0515926)
(5.81713 0.538487 0.0565678)
(7.32718 0.776305 0.0638148)
(9.25524 0.97364 0.0692198)
(11.8516 1.07018 0.0687383)
(15.4975 1.02862 0.0605513)
(20.7179 0.885293 0.0468988)
(28.2299 0.695164 0.0330804)
(39.1165 0.496475 0.0215818)
(55.2037 0.303269 0.0128678)
(80.7101 0.109903 0.00493857)
(1.02856 0.0102318 0.00409833)
(1.08155 0.0324935 0.0129571)
(1.18637 0.059544 0.0237242)
(1.34343 0.0920311 0.0373116)
(1.55745 0.125061 0.0533334)
(1.84857 0.145871 0.0683167)
(2.26646 0.14407 0.0757427)
(2.87464 0.157581 0.0749139)
(3.72622 0.23238 0.07081)
(4.82609 0.457286 0.0707376)
(6.13108 0.860607 0.0803691)
(7.63817 1.34347 0.0977869)
(9.46193 1.74161 0.112818)
(11.8836 1.94595 0.115862)
(15.3564 1.84956 0.100684)
(20.4667 1.56051 0.0722668)
(27.9424 1.20044 0.0462021)
(38.834 0.8426 0.0275109)
(54.9331 0.508108 0.0150243)
(80.4258 0.1824 0.00563121)
(1.05099 0.00877137 0.00545255)
(1.10788 0.0281782 0.0176674)
(1.21892 0.0526283 0.0339495)
(1.37974 0.08268 0.0571072)
(1.58593 0.11079 0.0880927)
(1.85308 0.112728 0.119789)
(2.26314 0.0517271 0.131759)
(2.91987 0.0475258 0.122675)
(3.909 0.0853574 0.106327)
(5.2351 0.426992 0.0997593)
(6.71842 1.13295 0.11807)
(8.23202 2.04576 0.160659)
(9.86764 2.78258 0.201343)
(11.9338 3.07636 0.215959)
(15.0833 2.87037 0.188176)
(20.0078 2.35414 0.122821)
(27.4503 1.75536 0.0700971)
(38.3769 1.19993 0.0371341)
(54.5137 0.710209 0.0180913)
(79.9973 0.251568 0.00625958)
(1.06556 0.0021903 0.00707559)
(1.12576 0.00691722 0.0235213)
(1.24211 0.0121472 0.0475637)
(1.40438 0.0151416 0.0863472)
(1.59136 0.00408285 0.146441)
(1.79815 -0.0613957 0.216675)
(2.10559 -0.185897 0.234459)
(2.58379 -0.70082 0.0977415)
(3.67511 -0.814511 0.0796806)
(5.25146 -0.867332 0.0719266)
(7.12749 -0.266696 0.0789331)
(8.74603 0.667571 0.121896)
(9.94558 1.87013 0.157231)
(11.8426 4.67491 0.404107)
(14.5871 4.23669 0.357645)
(19.2277 3.2861 0.208291)
(26.69 2.34463 0.10624)
(37.7207 1.54438 0.0502297)
(53.9435 0.891208 0.0212775)
(79.4334 0.310406 0.00697619)
(1.06034 -0.00869146 0.00854489)
(1.11882 -0.0294782 0.0289448)
(1.23038 -0.0620334 0.0609539)
(1.37864 -0.121372 0.118198)
(1.52449 -0.239572 0.219877)
(1.59266 -0.424808 0.361073)
(1.78772 -0.807467 0.155907)
(2.50088 -1.34469 0.153045)
(2.44524 -1.09944 0.0973104)
(11.7515 3.33465 0.201497)
(11.3012 4.09251 0.310256)
(13.3847 6.10886 0.592725)
(17.9855 4.39308 0.307077)
(25.6067 2.89303 0.145073)
(36.8645 1.80649 0.0633475)
(53.2414 1.00989 0.0238777)
(78.7631 0.344784 0.00702102)
(1.02767 -0.0198835 0.00928554)
(1.07375 -0.0675597 0.0315185)
(1.15592 -0.141125 0.0665452)
(1.24663 -0.265739 0.129065)
(1.29529 -0.471382 0.238143)
(1.36044 -1.01013 0.16114)
(1.05925 -0.960442 0.194138)
(12.0635 8.07275 0.376294)
(16.2251 5.35541 0.344307)
(24.2011 3.04208 0.16219)
(35.8483 1.8565 0.0701451)
(52.4514 1.02218 0.0245392)
(78.0358 0.341994 0.00681682)
(0.973096 -0.0256847 0.00915725)
(0.997442 -0.0878922 0.0306503)
(1.0295 -0.185961 0.0629684)
(1.04534 -0.354485 0.117534)
(1.09944 -0.813397 0.0936808)
(1.11258 -1.06764 0.138728)
(-0.00348332 0.0239764 1.68087)
(7.21517e-05 0.0474398 1.69819)
(6.2944 8.97051 0.203163)
(11.8404 4.08015 0.224207)
(22.6434 3.07384 0.159105)
(34.7023 1.77883 0.0707218)
(51.6271 0.94133 0.022456)
(77.3196 0.304023 0.00544096)
(0.915354 -0.0217516 0.0085081)
(0.916057 -0.0747571 0.0278053)
(0.894549 -0.159361 0.0544303)
(0.81215 -0.306206 0.0946579)
(0.742538 -0.566872 0.0727498)
(0.368713 -0.8185 0.105791)
(0.0619595 0.0605596 1.70393)
(-0.0728077 0.0404882 3.58894)
(0.0727423 0.0405793 3.58814)
(-0.415231 0.116072 1.73061)
(-0.0186138 0.0134016 1.68003)
(8.81411 7.04593 0.252223)
(20.5265 2.45615 0.155616)
(33.5573 1.3429 0.0694352)
(50.8885 0.685255 0.0195268)
(76.7213 0.214806 0.00373774)
(0.87809 -0.0084512 0.00794088)
(0.862927 -0.0289191 0.0253968)
(0.804815 -0.0610134 0.0473905)
(0.658009 -0.116645 0.0759165)
(0.469047 -0.298365 0.0507602)
(0.0240108 -0.00364771 1.68081)
(0.0406873 -0.0727303 3.58907)
(0.0808358 0.0807178 3.65809)
(-0.0805695 0.0803284 3.65883)
(-0.0411259 -0.0728523 3.59004)
(-0.357202 0.0310063 1.71676)
(3.71092 3.96072 0.138685)
(19.1866 0.810567 0.136694)
(32.8447 0.434209 0.0652903)
(50.4516 0.228879 0.0171615)
(76.3796 0.0725437 0.00268928)
(0.878094 0.00845385 0.00794092)
(0.862933 0.0289293 0.025397)
(0.804825 0.0610373 0.0473909)
(0.65804 0.116701 0.0759168)
(0.36807 0.106439 0.046272)
(0.0477546 -0.000367687 1.69684)
(0.0405807 0.0723615 3.58702)
(0.0805643 -0.0805759 3.65856)
(-0.0811615 -0.0812724 3.65539)
(-0.0401105 0.0719355 3.58854)
(-0.414657 -0.0135799 1.72902)
(3.1737 -1.35882 0.123979)
(19.1866 -0.810542 0.136691)
(32.8446 -0.434276 0.0653603)
(50.4516 -0.229006 0.0172221)
(76.3796 -0.0726809 0.002693)
(0.915362 0.0217523 0.0085083)
(0.916072 0.0747595 0.0278062)
(0.894582 0.159364 0.0544321)
(0.812281 0.3062 0.0946592)
(0.49662 0.461243 0.0605768)
(0.116442 -0.41559 1.73)
(-0.0725089 -0.0409215 3.59081)
(0.0717156 -0.0404499 3.58759)
(-0.379095 -0.379098 1.72794)
(-0.0494363 -0.0409126 1.70824)
(5.06575 -5.83313 0.20785)
(20.5265 -2.45614 0.155665)
(33.5572 -1.34299 0.0695895)
(50.8885 -0.685386 0.019635)
(76.7214 -0.214922 0.00374744)
(0.973103 0.0256845 0.00915777)
(0.997449 0.0878911 0.0306521)
(1.02949 0.185956 0.0629734)
(1.04528 0.354461 0.117551)
(0.827286 0.596873 0.0850582)
(0.476986 1.08829 0.122557)
(0.013826 -0.019381 1.67716)
(0.0316396 -0.357324 1.71683)
(-0.0134317 -0.414653 1.72842)
(-0.0407826 -0.0490836 1.70793)
(10.3168 -6.27445 0.212824)
(22.6433 -3.07392 0.159128)
(34.7022 -1.77894 0.0707878)
(51.627 -0.941423 0.0225481)
(77.3199 -0.304093 0.00545381)
(1.02768 0.0198839 0.00928633)
(1.07376 0.0675606 0.031521)
(1.15594 0.141127 0.0665507)
(1.24666 0.265746 0.129078)
(1.29525 0.471329 0.238182)
(0.993117 0.825314 0.158801)
(6.55299 -10.7901 0.281191)
(16.2248 -5.3553 0.344317)
(24.2008 -3.04214 0.162193)
(35.8481 -1.85653 0.0701466)
(52.4514 -1.02223 0.0245503)
(78.0361 -0.341998 0.00683044)
(1.06035 0.00869222 0.00854581)
(1.11883 0.02948 0.0289474)
(1.23039 0.0620349 0.060959)
(1.37863 0.12137 0.118207)
(1.5245 0.239547 0.219888)
(1.59306 0.424728 0.361103)
(1.64466 1.12352 0.186156)
(1.55615 0.995195 0.155684)
(12.3825 -4.93692 0.323555)
(13.3845 -6.10873 0.592613)
(17.9851 -4.39304 0.306964)
(25.6064 -2.89299 0.14503)
(36.8643 -1.80648 0.0633437)
(53.2414 -1.00988 0.0238822)
(78.7634 -0.344736 0.00702961)
(1.06557 -0.00218918 0.00707646)
(1.12577 -0.00691361 0.0235236)
(1.24212 -0.0121398 0.0475677)
(1.40439 -0.0151248 0.0863539)
(1.59141 -0.00403333 0.146445)
(1.79833 0.0614759 0.216681)
(2.10582 0.185816 0.234469)
(2.42294 0.496308 0.115149)
(3.94776 1.53014 0.126866)
(5.55738 0.299239 0.0687634)
(7.79532 -0.399897 0.072615)
(9.69006 -2.28052 0.052152)
(10.4263 -4.13858 0.185488)
(11.8423 -4.67508 0.403989)
(14.5867 -4.23696 0.357538)
(19.2274 -3.2863 0.208178)
(26.6897 -2.34472 0.106172)
(37.7206 -1.54439 0.0502193)
(53.9435 -0.891149 0.0213003)
(79.4338 -0.310339 0.00697997)
(1.051 -0.00877013 0.00545325)
(1.1079 -0.0281736 0.0176692)
(1.21894 -0.052618 0.0339524)
(1.37977 -0.0826584 0.0571112)
(1.586 -0.110752 0.0880981)
(1.85321 -0.112685 0.119795)
(2.26331 -0.0517453 0.131762)
(2.92007 -0.0475912 0.122673)
(3.90921 -0.085453 0.106317)
(5.23524 -0.427053 0.09974)
(6.71848 -1.13302 0.118033)
(8.232 -2.04586 0.160614)
(9.86749 -2.78276 0.201339)
(11.9335 -3.07652 0.215925)
(15.0829 -2.87053 0.188126)
(20.0075 -2.3542 0.122829)
(27.4501 -1.75539 0.0700944)
(38.3768 -1.19992 0.0371478)
(54.5138 -0.710203 0.0180738)
(79.9976 -0.251572 0.00626268)
(1.02857 -0.0102306 0.00409888)
(1.08157 -0.0324892 0.0129584)
(1.1864 -0.0595341 0.0237262)
(1.34347 -0.0920122 0.0373141)
(1.55752 -0.125031 0.0533363)
(1.84868 -0.14584 0.0683194)
(2.26661 -0.144065 0.0757438)
(2.87481 -0.157584 0.0749114)
(3.72639 -0.232435 0.0707975)
(4.8262 -0.457372 0.0707185)
(6.13112 -0.860716 0.0803525)
(7.63812 -1.34361 0.0977598)
(9.46178 -1.7418 0.112836)
(11.8834 -1.94606 0.115949)
(15.3561 -1.84962 0.100732)
(20.4664 -1.56057 0.0722434)
(27.9422 -1.20046 0.0461811)
(38.8339 -0.84261 0.0275004)
(54.9331 -0.507911 0.0148095)
(80.4259 -0.182219 0.0054547)
(1.00834 -0.00768693 0.00318374)
(1.05856 -0.024209 0.00986462)
(1.15915 -0.043707 0.0173831)
(1.31345 -0.0664647 0.0259569)
(1.53021 -0.0899262 0.0351134)
(1.82915 -0.108811 0.0432733)
(2.24528 -0.12129 0.0482798)
(2.82184 -0.143638 0.049849)
(3.5967 -0.202961 0.0499786)
(4.59046 -0.332702 0.0515807)
(5.81715 -0.538556 0.0565552)
(7.32711 -0.77639 0.0638023)
(9.25509 -0.973723 0.0692092)
(11.8513 -1.07028 0.0687854)
(15.4973 -1.02871 0.0606011)
(20.7176 -0.885325 0.0468825)
(28.2297 -0.695181 0.0330329)
(39.1164 -0.496481 0.0215991)
(55.2038 -0.303411 0.0126526)
(80.7102 -0.110015 0.00476197)
(0.996702 -0.00281233 0.00273077)
(1.04558 -0.00881567 0.00836555)
(1.14415 -0.0157736 0.0144158)
(1.2971 -0.0237496 0.02089)
(1.51453 -0.0319692 0.0274054)
(1.81534 -0.0390796 0.0331086)
(2.22867 -0.045098 0.037058)
(2.78959 -0.0547694 0.0391928)
(3.53153 -0.076347 0.0405085)
(4.48316 -0.118628 0.0423693)
(5.68032 -0.182248 0.0455353)
(7.19447 -0.254254 0.0493495)
(9.16725 -0.313936 0.0517837)
(11.8365 -0.34315 0.0506759)
(15.5569 -0.331924 0.0453049)
(20.8277 -0.288543 0.0368646)
(28.3607 -0.228787 0.0276609)
(39.2496 -0.16444 0.0190896)
(55.3346 -0.100844 0.0117474)
(80.8496 -0.0367113 0.00451256)
(1.00503 0.00314572 0.00797071)
(1.05432 0.00991599 0.0243552)
(1.15348 0.0179554 0.041838)
(1.30674 0.0274755 0.0604567)
(1.52356 0.0376423 0.0791238)
(1.82245 0.0465844 0.0954603)
(2.23314 0.0533877 0.106887)
(2.79213 0.0626576 0.1132)
(3.53396 0.0833896 0.117162)
(4.48716 0.125453 0.122708)
(5.68603 0.190323 0.132079)
(7.19998 0.264821 0.143472)
(9.16954 0.326829 0.151228)
(11.8334 0.356753 0.149517)
(15.5483 0.343767 0.135584)
(20.8161 0.296974 0.112214)
(28.3487 0.23401 0.0856287)
(39.2385 0.167603 0.0597681)
(55.3247 0.102634 0.0356855)
(80.8398 0.0373079 0.012884)
(1.0181 0.00869649 0.00923724)
(1.06914 0.0275993 0.0285462)
(1.17109 0.0505619 0.0501041)
(1.32655 0.0785545 0.074539)
(1.54296 0.109057 0.100592)
(1.83881 0.134902 0.123947)
(2.25008 0.150042 0.138406)
(2.82307 0.170326 0.143224)
(3.59806 0.225782 0.144032)
(4.59558 0.354013 0.148874)
(5.82674 0.564329 0.163238)
(7.3377 0.811898 0.18457)
(9.26069 1.01868 0.20167)
(11.8474 1.1186 0.202949)
(15.4838 1.07062 0.182315)
(20.6996 0.913877 0.145414)
(28.2126 0.712327 0.106481)
(39.102 0.506064 0.0718703)
(55.1917 0.308101 0.0419127)
(80.6985 0.111747 0.0150076)
(1.04129 0.0119013 0.0117993)
(1.09614 0.0382416 0.0372031)
(1.20441 0.071761 0.0678359)
(1.36531 0.115049 0.106354)
(1.5804 0.164377 0.152072)
(1.86523 0.203037 0.195703)
(2.2716 0.206698 0.217706)
(2.87114 0.213017 0.216048)
(3.72346 0.275858 0.205231)
(4.83375 0.494481 0.205256)
(6.15178 0.907696 0.232572)
(7.66407 1.41561 0.283179)
(9.47782 1.83838 0.328292)
(11.8774 2.05276 0.340122)
(15.3281 1.9412 0.300961)
(20.4303 1.61723 0.223939)
(27.9118 1.2313 0.152176)
(38.8116 0.85866 0.0967384)
(54.9162 0.51609 0.0545067)
(80.4105 0.185174 0.0194867)
(1.06819 0.0109623 0.015587)
(1.12901 0.0359645 0.0503942)
(1.2481 0.0702424 0.0965615)
(1.41984 0.119031 0.162602)
(1.63253 0.180114 0.253142)
(1.88557 0.224013 0.350386)
(2.26713 0.171077 0.38701)
(2.9015 0.146269 0.362246)
(3.89212 0.152431 0.315884)
(5.24597 0.475056 0.29474)
(6.76543 1.1994 0.348918)
(8.29713 2.16859 0.475491)
(9.91159 2.96203 0.592345)
(11.9247 3.2797 0.637396)
(15.0196 3.04559 0.556544)
(19.9277 2.44734 0.37098)
(27.392 1.80008 0.228022)
(38.3399 1.22103 0.134493)
(54.4893 0.719811 0.0725889)
(79.9764 0.254913 0.0254913)
(1.08825 0.00445899 0.0201215)
(1.15577 0.0152222 0.0668253)
(1.2887 0.0321362 0.135325)
(1.47787 0.0604641 0.248215)
(1.6886 0.101895 0.432934)
(1.8626 0.115425 0.671722)
(2.10763 -0.00892881 0.730387)
(2.47199 -0.622572 0.494878)
(3.63792 -0.785761 0.404555)
(5.24578 -0.860873 0.327804)
(7.18588 -0.259393 0.364903)
(8.85131 0.741129 0.548938)
(10.0256 1.98542 0.764238)
(11.815 4.97367 1.23479)
(14.4501 4.50857 1.07628)
(19.0551 3.40281 0.605385)
(26.5837 2.39402 0.3302)
(37.6624 1.56576 0.180306)
(53.9093 0.900326 0.0928672)
(79.4063 0.313444 0.0320117)
(1.0881 -0.00708031 0.0242239)
(1.15772 -0.0235994 0.0822022)
(1.29683 -0.0479758 0.174443)
(1.4972 -0.0898806 0.346773)
(1.70384 -0.174198 0.685443)
(1.70204 -0.313965 1.25499)
(1.66334 -0.744606 0.890752)
(2.41083 -1.22461 0.782566)
(2.35757 -1.05157 0.549106)
(11.9442 3.35312 1.13746)
(11.3476 4.23255 1.4253)
(13.1446 6.27913 1.91448)
(17.6795 4.47075 0.851085)
(25.4454 2.92598 0.423351)
(36.7849 1.82016 0.21929)
(53.1985 1.01568 0.109615)
(78.7306 0.346871 0.0373752)
(1.05786 -0.0194605 0.0263125)
(1.11633 -0.0663474 0.0895962)
(1.22891 -0.139501 0.191188)
(1.37513 -0.265288 0.380909)
(1.47834 -0.471111 0.74668)
(1.4309 -1.13717 0.89972)
(1.07017 -0.936747 1.06243)
(11.8835 7.88016 1.57117)
(15.9154 5.3574 0.917467)
(24.0268 3.03588 0.457014)
(35.761 1.85417 0.234523)
(52.4049 1.02195 0.116164)
(78.0011 0.342376 0.0394717)
(1.0025 -0.0263019 0.0259336)
(1.03755 -0.0907762 0.087221)
(1.09486 -0.195304 0.181484)
(1.15435 -0.381393 0.347453)
(1.18621 -0.935261 0.492829)
(1.22737 -1.15468 0.793492)
(-0.00511789 0.038921 8.61787)
(-0.000658291 0.0875389 8.61423)
(6.13629 8.81887 1.27176)
(11.6342 4.00336 0.83027)
(22.4901 3.0396 0.409697)
(34.6216 1.76669 0.218523)
(51.5829 0.936711 0.110805)
(77.2863 0.302867 0.0380763)
(0.942131 -0.0226932 0.0240931)
(0.950394 -0.078784 0.0792678)
(0.945197 -0.171336 0.15763)
(0.886598 -0.338986 0.281852)
(0.797161 -0.625691 0.388288)
(0.410373 -0.90907 0.551564)
(0.107151 0.102193 8.60321)
(7.66412e-05 0.202044 11.0571)
(0.000286681 0.201986 11.0587)
(-1.40055 0.215289 8.70233)
(-0.0242611 0.019297 8.58863)
(8.64842 6.95716 0.596895)
(20.4086 2.41815 0.317286)
(33.4904 1.32868 0.184299)
(50.8502 0.680072 0.0987244)
(76.6916 0.213544 0.034901)
(0.902643 -0.00887933 0.0224894)
(0.892482 -0.0307194 0.0724663)
(0.843277 -0.0662347 0.13744)
(0.704101 -0.13072 0.224816)
(0.486369 -0.333301 0.271051)
(0.0373141 -0.0108654 8.61689)
(0.202686 -0.000595121 11.0582)
(0.138152 0.137495 11.2583)
(-0.137658 0.137303 11.2587)
(-0.202545 -0.00037534 11.0596)
(-1.23171 0.030912 8.66112)
(3.63609 3.90821 0.369861)
(19.0996 0.790706 0.244329)
(32.7906 0.425695 0.156745)
(50.4185 0.225975 0.0888491)
(76.3527 0.0718953 0.0320937)
(0.902647 0.00888219 0.0224895)
(0.892489 0.0307305 0.0724668)
(0.843287 0.0662603 0.13744)
(0.704135 0.130778 0.224814)
(0.372478 0.11935 0.242115)
(0.0850427 0.00295748 8.62582)
(0.202131 -0.000261473 11.0553)
(0.138023 -0.138041 11.2584)
(-0.13805 -0.138208 11.2579)
(-0.202146 -0.000275691 11.0559)
(-1.4061 -0.00678872 8.70856)
(3.11418 -1.34032 0.318905)
(19.0996 -0.790669 0.244274)
(32.7906 -0.425798 0.156584)
(50.4185 -0.226099 0.0887499)
(76.3528 -0.0720224 0.0321056)
(0.942141 0.0226941 0.0240938)
(0.95041 0.0787877 0.07927)
(0.945233 0.171342 0.157633)
(0.886741 0.338995 0.281861)
(0.520308 0.512857 0.321863)
(0.215671 -1.40179 8.70103)
(0.000459412 -0.202697 11.0582)
(-0.000156979 -0.202323 11.0586)
(-1.32791 -1.32726 8.8346)
(-0.0855321 -0.0699775 8.60928)
(4.92502 -5.76064 0.467734)
(20.4086 -2.41819 0.317137)
(33.4905 -1.32877 0.184014)
(50.8502 -0.680179 0.0985139)
(76.6918 -0.213653 0.0348728)
(1.00251 0.0263021 0.0259351)
(1.03757 0.0907764 0.0872263)
(1.09487 0.195301 0.181496)
(1.15428 0.381376 0.34749)
(0.890947 0.647545 0.445581)
(0.523784 1.20259 0.675397)
(0.0217621 -0.0276749 8.58438)
(0.0325209 -1.23177 8.66065)
(-0.00624287 -1.40723 8.70764)
(-0.0703466 -0.0855248 8.60716)
(10.1411 -6.22031 0.719459)
(22.4901 -3.03963 0.409535)
(34.6215 -1.76669 0.218392)
(51.583 -0.936744 0.110784)
(77.2866 -0.302934 0.0380027)
(1.05787 0.0194611 0.0263149)
(1.11634 0.0663488 0.0896034)
(1.22894 0.139502 0.191203)
(1.37518 0.265289 0.380939)
(1.47828 0.471066 0.746755)
(1.04881 0.869134 0.865539)
(6.35422 -10.7186 1.44657)
(15.9152 -5.35731 0.917389)
(24.0266 -3.03593 0.456995)
(35.7608 -1.85425 0.234581)
(52.4049 -1.02207 0.116194)
(78.0015 -0.342383 0.0395092)
(1.08812 0.00708113 0.0242266)
(1.15773 0.0236012 0.0822098)
(1.29684 0.0479761 0.174458)
(1.4972 0.089874 0.346798)
(1.70386 0.174151 0.685491)
(1.70242 0.313894 1.25509)
(1.54808 1.05333 1.02461)
(1.48298 0.928047 0.88154)
(12.4769 -4.96079 1.58455)
(13.1445 -6.27902 1.91425)
(17.6791 -4.47073 0.851014)
(25.4451 -2.92598 0.423386)
(36.7848 -1.82017 0.219283)
(53.1985 -1.01567 0.109661)
(78.7309 -0.34683 0.0373974)
(1.08827 -0.00445803 0.020124)
(1.15578 -0.0152191 0.0668321)
(1.28871 -0.0321306 0.135337)
(1.47789 -0.0604515 0.248234)
(1.68865 -0.101854 0.432965)
(1.86277 -0.115373 0.671757)
(2.10784 0.00885576 0.73041)
(2.34421 0.394368 0.628699)
(3.86352 1.44121 0.48219)
(5.53614 0.278656 0.350576)
(7.86583 -0.413378 0.387896)
(9.84992 -2.28568 0.635956)
(10.5464 -4.3481 0.956269)
(11.8147 -4.97378 1.23473)
(14.4497 -4.50876 1.07626)
(19.0548 -3.40289 0.605378)
(26.5835 -2.39406 0.330216)
(37.6623 -1.56576 0.180289)
(53.9093 -0.900287 0.0928907)
(79.4066 -0.313381 0.0320207)
(1.06821 -0.0109613 0.015589)
(1.12903 -0.0359607 0.0503996)
(1.24812 -0.0702336 0.0965701)
(1.41987 -0.119012 0.162614)
(1.63259 -0.180082 0.253158)
(1.8857 -0.223977 0.350401)
(2.26729 -0.171103 0.387019)
(2.90169 -0.146328 0.362248)
(3.89232 -0.152525 0.315847)
(5.2461 -0.475111 0.294688)
(6.76548 -1.19946 0.348846)
(8.29711 -2.16869 0.475417)
(9.91144 -2.96216 0.592247)
(11.9244 -3.2798 0.637329)
(15.0192 -3.04571 0.556489)
(19.9274 -2.44743 0.370965)
(27.3918 -1.80014 0.228012)
(38.3399 -1.22102 0.134499)
(54.4894 -0.719781 0.0725681)
(79.9766 -0.25485 0.025496)
(1.04131 -0.0119004 0.0118009)
(1.09616 -0.0382379 0.037207)
(1.20444 -0.0717522 0.0678418)
(1.36535 -0.115032 0.106362)
(1.58047 -0.16435 0.152081)
(1.86535 -0.203009 0.195711)
(2.27174 -0.206696 0.217709)
(2.8713 -0.213022 0.216041)
(3.72362 -0.275909 0.205209)
(4.83385 -0.494561 0.205221)
(6.15181 -0.907794 0.232521)
(7.66402 -1.41573 0.283119)
(9.47767 -1.83856 0.328227)
(11.8771 -2.05287 0.340002)
(15.3278 -1.94126 0.300886)
(20.43 -1.61723 0.224004)
(27.9116 -1.23128 0.152244)
(38.8116 -0.858667 0.0967229)
(54.9163 -0.516039 0.0545602)
(80.4107 -0.185127 0.0195821)
(1.01812 -0.00869578 0.00923846)
(1.06917 -0.0275966 0.0285491)
(1.17112 -0.0505556 0.0501084)
(1.3266 -0.0785428 0.0745442)
(1.54304 -0.10904 0.100597)
(1.83891 -0.134886 0.123951)
(2.2502 -0.150038 0.138407)
(2.82321 -0.170332 0.143217)
(3.59818 -0.22581 0.144016)
(4.59566 -0.354061 0.148848)
(5.82675 -0.564393 0.163205)
(7.33764 -0.811974 0.184536)
(9.26054 -1.01876 0.201641)
(11.8471 -1.1187 0.202884)
(15.4835 -1.0707 0.182259)
(20.6994 -0.913971 0.145486)
(28.2124 -0.712395 0.106523)
(39.102 -0.50606 0.0718837)
(55.1918 -0.308081 0.0419683)
(80.6987 -0.111723 0.0151055)
(1.00505 -0.00314545 0.00797177)
(1.05434 -0.00991497 0.0243577)
(1.15352 -0.0179531 0.0418415)
(1.30679 -0.0274714 0.0604608)
(1.52363 -0.0376366 0.0791278)
(1.82255 -0.046579 0.0954629)
(2.23326 -0.0533857 0.106886)
(2.79226 -0.0626598 0.113194)
(3.53407 -0.083399 0.117147)
(4.48722 -0.12547 0.122687)
(5.68603 -0.190344 0.132054)
(7.19991 -0.264847 0.143447)
(9.16939 -0.326857 0.151205)
(11.8331 -0.356769 0.149497)
(15.5481 -0.343773 0.135567)
(20.8159 -0.29697 0.112194)
(28.3486 -0.23399 0.0856316)
(39.2386 -0.167601 0.0597676)
(55.3248 -0.102628 0.0356895)
(80.84 -0.0373021 0.012892)
(1.02096 0.00376198 0.0125878)
(1.071 0.0119576 0.0384237)
(1.17123 0.0219754 0.0658457)
(1.32504 0.0343148 0.0948276)
(1.54072 0.0480681 0.123723)
(1.83607 0.0604223 0.149035)
(2.24186 0.0687041 0.166914)
(2.7972 0.077226 0.177039)
(3.53863 0.0963796 0.183507)
(4.49442 0.138098 0.192046)
(5.69612 0.205417 0.206019)
(7.20928 0.284795 0.222725)
(9.17241 0.351334 0.233857)
(11.8256 0.382676 0.230524)
(15.53 0.366366 0.208707)
(20.7917 0.312934 0.172749)
(28.3232 0.244004 0.131779)
(39.2145 0.173308 0.0920748)
(55.3021 0.105555 0.0556704)
(80.8161 0.0383761 0.0203398)
(1.03669 0.0105637 0.0144977)
(1.08923 0.0338483 0.0447247)
(1.19363 0.063188 0.0782104)
(1.35123 0.100823 0.115794)
(1.56708 0.144469 0.155616)
(1.85727 0.183668 0.19142)
(2.25947 0.203992 0.213994)
(2.82569 0.220229 0.221973)
(3.60071 0.268217 0.223724)
(4.60501 0.393668 0.231243)
(5.84429 0.612777 0.252756)
(7.35674 0.879735 0.28443)
(9.26984 1.10497 0.309341)
(11.8379 1.21153 0.310323)
(15.4556 1.151 0.278241)
(20.6626 0.967765 0.222015)
(28.1768 0.744281 0.162587)
(39.071 0.523778 0.109854)
(55.1644 0.31702 0.0648754)
(80.6709 0.114649 0.0234909)
(1.06534 0.014992 0.0183591)
(1.12358 0.0488603 0.0576904)
(1.23816 0.0943007 0.104624)
(1.40633 0.157762 0.163038)
(1.62389 0.238586 0.232243)
(1.89715 0.313985 0.299219)
(2.28135 0.328861 0.333937)
(2.86403 0.320213 0.331934)
(3.71739 0.358441 0.315745)
(4.84739 0.56401 0.315759)
(6.19067 0.997046 0.35711)
(7.71293 1.55786 0.434433)
(9.5074 2.03162 0.502035)
(11.864 2.26785 0.518885)
(15.2711 2.12551 0.456975)
(20.3574 1.72635 0.338065)
(27.8499 1.28953 0.229887)
(38.7644 0.888451 0.146628)
(54.8791 0.530364 0.0830967)
(80.3752 0.189848 0.029193)
(1.10048 0.0150063 0.0240311)
(1.16853 0.0503443 0.0773786)
(1.3027 0.10297 0.147324)
(1.49604 0.187981 0.246848)
(1.72433 0.317979 0.385272)
(1.95075 0.462738 0.54154)
(2.27368 0.427454 0.602452)
(2.8619 0.356777 0.561089)
(3.8545 0.292267 0.485889)
(5.26296 0.569531 0.450129)
(6.85708 1.33134 0.534948)
(8.42684 2.43052 0.741292)
(9.99968 3.35218 0.925955)
(11.9048 3.73532 1.0016)
(14.8874 3.44147 0.866159)
(19.7645 2.63389 0.558612)
(27.2762 1.8857 0.341214)
(38.2645 1.26079 0.201772)
(54.4367 0.737723 0.108724)
(79.93 0.26053 0.0373909)
(1.13072 0.00865307 0.0308034)
(1.21191 0.0306551 0.101888)
(1.37709 0.0699572 0.20528)
(1.624 0.15066 0.377353)
(1.90053 0.319506 0.67543)
(2.0052 0.59128 1.12099)
(2.11806 0.447984 1.23217)
(2.2741 -0.352566 0.894764)
(3.51921 -0.622944 0.717024)
(5.21323 -0.800731 0.549845)
(7.30881 -0.207431 0.61075)
(9.10886 0.913685 0.971842)
(10.2274 2.381 1.41541)
(11.7576 5.73513 2.17217)
(14.1339 5.23164 1.8827)
(18.6713 3.63877 0.922657)
(26.3732 2.48812 0.491553)
(37.5464 1.60616 0.267726)
(53.8374 0.917571 0.137658)
(79.3473 0.318667 0.0462728)
(1.14003 -0.00408234 0.0369609)
(1.23099 -0.0125855 0.12501)
(1.42675 -0.0209371 0.265167)
(1.75451 -0.0252545 0.538278)
(2.18128 -0.0220622 1.16994)
(1.97953 -0.0191264 2.51024)
(1.39586 -0.424372 1.87509)
(2.17641 -0.875528 1.65237)
(2.1079 -0.927941 1.09663)
(12.4314 3.63118 2.43114)
(11.4712 4.6542 3.04051)
(12.5202 6.65535 3.88987)
(16.8844 4.61551 1.22568)
(25.1297 2.98773 0.621376)
(36.6306 1.84612 0.322835)
(53.1097 1.02658 0.160762)
(78.6611 0.350103 0.0528322)
(1.11437 -0.0186583 0.040145)
(1.19676 -0.0640466 0.136357)
(1.3724 -0.136418 0.29154)
(1.65415 -0.264359 0.595459)
(1.94679 -0.463399 1.28206)
(1.74179 -1.39539 1.90708)
(1.10812 -0.88779 2.26347)
(11.4548 7.53845 3.36911)
(15.1721 5.38493 1.41942)
(23.6821 3.03343 0.681333)
(35.5913 1.85396 0.344892)
(52.3087 1.02234 0.169418)
(77.927 0.34242 0.0548167)
(1.05758 -0.0274404 0.03965)
(1.11324 -0.0961336 0.133034)
(1.22257 -0.213094 0.276975)
(1.38787 -0.435488 0.539807)
(1.47729 -1.14957 0.906286)
(1.57699 -1.38938 1.68361)
(-0.0319186 0.11261 15.7841)
(0.00945889 0.222455 15.7854)
(5.80019 8.4508 2.76579)
(11.0589 3.8769 1.5848)
(22.1998 2.97515 0.623816)
(34.4679 1.74391 0.321469)
(51.4917 0.928658 0.159843)
(77.2145 0.300467 0.0513254)
(0.99235 -0.0244249 0.0369678)
(1.01505 -0.0862732 0.121323)
(1.04318 -0.194155 0.240923)
(1.04325 -0.404781 0.435395)
(0.98466 -0.773002 0.706431)
(0.54495 -1.17116 1.12583)
(0.247476 0.246122 15.7627)
(0.343086 0.716194 17.8783)
(-0.342215 0.7161 17.8784)
(-2.79611 0.498919 15.9106)
(-0.0594707 0.0546717 15.7288)
(8.30723 6.61063 1.11624)
(20.2141 2.3381 0.495608)
(33.3709 1.30004 0.270898)
(50.7714 0.669924 0.139858)
(76.6261 0.210595 0.0447039)
(0.948722 -0.00967704 0.0346044)
(0.947919 -0.0341071 0.111209)
(0.916157 -0.0763256 0.210068)
(0.79535 -0.159405 0.342865)
(0.562247 -0.420784 0.465878)
(0.114238 -0.0281732 15.7833)
(0.716695 0.340908 17.8797)
(0.243933 0.242982 17.8987)
(-0.243733 0.243063 17.8991)
(-0.7172 0.342169 17.8812)
(-2.45747 0.0948335 15.8567)
(3.57398 3.73616 0.61538)
(18.9836 0.75594 0.385419)
(32.6998 0.412819 0.229729)
(50.3501 0.221408 0.124126)
(76.2925 0.0706078 0.0397564)
(0.948727 0.00968031 0.0346047)
(0.947926 0.0341196 0.11121)
(0.916167 0.0763545 0.210071)
(0.795388 0.159467 0.342868)
(0.415148 0.151124 0.408811)
(0.224978 0.00466101 15.7752)
(0.717767 -0.34329 17.8765)
(0.24505 -0.244072 17.8993)
(-0.243085 -0.243866 17.9)
(-0.716155 -0.342425 17.8783)
(-2.81627 -0.0245183 15.9327)
(3.07619 -1.28402 0.517566)
(18.9837 -0.755966 0.385405)
(32.6998 -0.412885 0.229941)
(50.3501 -0.221515 0.124311)
(76.2926 -0.0707572 0.0397758)
(0.992361 0.0244266 0.0369688)
(1.01506 0.0862792 0.121327)
(1.04322 0.194164 0.240933)
(1.04339 0.4048 0.435406)
(0.6215 0.645453 0.567267)
(0.500516 -2.79937 15.9064)
(0.343533 -0.717092 17.8796)
(-0.341969 -0.716836 17.8809)
(-2.63134 -2.63107 16.1336)
(-0.197964 -0.173165 15.7716)
(4.7962 -5.48369 0.8154)
(20.2141 -2.33811 0.495571)
(33.371 -1.30023 0.271145)
(50.7714 -0.669931 0.140324)
(76.6263 -0.210586 0.0449468)
(1.05759 0.0274414 0.0396523)
(1.11326 0.0961361 0.133041)
(1.2226 0.213097 0.276991)
(1.38781 0.435482 0.53984)
(1.12266 0.77183 0.817207)
(0.696861 1.51301 1.42347)
(0.0534092 -0.0560011 15.7363)
(0.0965347 -2.45901 15.8559)
(-0.0250527 -2.82054 15.9308)
(-0.180796 -0.199226 15.7698)
(9.69704 -5.96646 1.38011)
(22.1998 -2.97515 0.623825)
(34.4679 -1.74375 0.321558)
(51.4918 -0.928758 0.160246)
(77.2146 -0.300679 0.0515279)
(1.11438 0.0186595 0.0401485)
(1.19678 0.0640492 0.136368)
(1.37243 0.136421 0.291561)
(1.65422 0.264357 0.595493)
(1.94673 0.463362 1.28211)
(1.32264 0.974415 1.82784)
(6.02085 -10.3754 3.13322)
(15.1719 -5.38484 1.4193)
(23.682 -3.03348 0.681292)
(35.5912 -1.85412 0.344971)
(52.3087 -1.02248 0.169517)
(77.9273 -0.342352 0.0548693)
(1.14005 0.00408325 0.036965)
(1.231 0.0125871 0.125022)
(1.42677 0.0209364 0.265188)
(1.75452 0.0252444 0.538313)
(2.18133 0.0220054 1.16999)
(1.97986 0.0190646 2.51032)
(1.36571 0.856271 2.18439)
(1.28789 0.744172 1.8817)
(12.6863 -5.19796 3.43957)
(12.5201 -6.65524 3.88946)
(16.8841 -4.61548 1.22557)
(25.1295 -2.98774 0.621341)
(36.6304 -1.84616 0.322808)
(53.1097 -1.02657 0.16081)
(78.6614 -0.350077 0.0528619)
(1.13074 -0.00865243 0.0308072)
(1.21192 -0.0306533 0.101898)
(1.37711 -0.0699543 0.205297)
(1.62402 -0.150654 0.377379)
(1.90058 -0.319481 0.675462)
(2.00537 -0.591259 1.12102)
(2.11824 -0.448022 1.23218)
(2.23593 0.0503133 1.21879)
(3.64658 1.22536 0.911463)
(5.46338 0.239467 0.604959)
(8.0267 -0.450721 0.666327)
(10.2484 -2.45219 1.19198)
(10.8306 -4.83472 1.91422)
(11.7573 -5.73513 2.17192)
(14.1336 -5.23174 1.88248)
(18.6711 -3.63883 0.922589)
(26.373 -2.48817 0.491526)
(37.5463 -1.60615 0.267736)
(53.8375 -0.917558 0.137649)
(79.3476 -0.318613 0.0462833)
(1.1005 -0.0150058 0.0240342)
(1.16855 -0.0503419 0.0773865)
(1.30273 -0.102965 0.147337)
(1.49608 -0.187968 0.246866)
(1.7244 -0.317953 0.385294)
(1.95088 -0.462709 0.541561)
(2.27383 -0.427487 0.602462)
(2.86207 -0.356825 0.56108)
(3.85468 -0.292342 0.485833)
(5.26308 -0.569572 0.450046)
(6.85711 -1.33138 0.534843)
(8.42685 -2.43063 0.741205)
(9.99953 -3.35224 0.925885)
(11.9045 -3.73536 1.00156)
(14.8871 -3.44151 0.866117)
(19.7642 -2.63397 0.558579)
(27.276 -1.88576 0.341195)
(38.2645 -1.26078 0.201754)
(54.4368 -0.737697 0.108744)
(79.9303 -0.260468 0.037392)
(1.06536 -0.0149915 0.0183614)
(1.1236 -0.0488577 0.0576961)
(1.23819 -0.0942941 0.104632)
(1.40637 -0.157748 0.16305)
(1.62396 -0.238564 0.232256)
(1.89726 -0.313963 0.299231)
(2.28148 -0.328863 0.333941)
(2.86418 -0.320221 0.331922)
(3.71753 -0.358483 0.315704)
(4.84748 -0.564079 0.315698)
(6.19069 -0.997122 0.357044)
(7.71289 -1.55796 0.43436)
(9.50725 -2.03175 0.501992)
(11.8638 -2.26799 0.518909)
(15.2709 -2.12562 0.457002)
(20.3572 -1.72635 0.337967)
(27.8497 -1.28951 0.229807)
(38.7644 -0.888457 0.146621)
(54.8792 -0.530313 0.0830941)
(80.3754 -0.189799 0.0291963)
(1.03671 -0.0105633 0.0144995)
(1.08925 -0.0338462 0.044729)
(1.19366 -0.0631829 0.0782167)
(1.35128 -0.100813 0.115802)
(1.56716 -0.144454 0.155624)
(1.85737 -0.183654 0.191426)
(2.25959 -0.20399 0.213994)
(2.82582 -0.220235 0.221962)
(3.60083 -0.268239 0.223695)
(4.60508 -0.393708 0.231201)
(5.8443 -0.612831 0.252708)
(7.35668 -0.879795 0.284384)
(9.26969 -1.10505 0.309303)