/*--------------------------------*- C++ -*----------------------------------*\
  =========                 |
  \\      /  F ield         | OpenFOAM: The Open Source CFD Toolbox
   \\    /   O peration     | Website:  https://openfoam.org
    \\  /    A nd           | Version:  11
     \\/     M anipulation  |
\*---------------------------------------------------------------------------*/
FoamFile
{
    format      ascii;
    class       volScalarField;
    location    "0.0003";
    object      p;
}
// * * * * * * * * * * * * * * * * * * * * * * * * * * * * * * * * * * * * * //

dimensions      [1 -1 -2 0 0 0 0];

internalField   nonuniform List<scalar> 
21740
(
122112
121784
123748
124563
124462
124051
123309
122232
120890
119369
117757
116128
114543
113034
111614
110274
108997
107756
106536
105344
122150
121863
123838
124660
124566
124157
123405
122308
120937
119382
117734
116079
114476
112961
111543
110212
108948
107721
106515
105337
122227
122024
124018
124855
124778
124371
123599
122463
121028
119397
117677
115965
114326
112800
111392
110084
108847
107650
106473
105323
122344
122262
124283
125145
125097
124694
123892
122694
121166
119398
117552
115750
114061
112523
111145
109879
108692
107541
106409
105302
122496
122570
124623
125524
125519
125130
124284
123175
121626
119859
117868
115926
114130
112081
110772
109584
108477
107396
106326
105275
122675
122928
125021
125982
126045
125675
124769
123382
121839
113485
111955
110246
109194
108201
107217
106226
105243
122867
123308
125442
126481
126668
126285
125371
109948
108708
107881
107020
106119
105209
123049
123666
125840
126967
127039
126998
102484
102484
109084
108469
107565
106830
106018
105177
123194
123950
126159
127386
127586
127638
102484
102486
102486
102484
102484
107945
107312
106680
105939
105153
123277
124107
126331
127608
127942
102484
102486
102486
102486
102486
102484
107570
107161
106595
105895
105139
123277
124107
126331
127608
128007
102484
102486
102486
102486
102486
102484
107484
107161
106595
105895
105139
123194
123950
126159
127386
127810
102484
102486
102486
102484
102484
107730
107312
106680
105939
105153
123049
123666
125840
126967
127331
127294
102484
102484
102484
102484
108194
107565
106830
106018
105177
122867
123308
125442
126481
126668
126686
109498
108708
107881
107020
106119
105209
122675
122928
125021
125982
126045
125674
124971
123863
111518
110246
109194
108201
107217
106226
105243
122496
122570
124623
125524
125519
125130
124284
123284
121504
119754
117657
115673
113855
112081
110772
109584
108477
107396
106326
105275
122344
122262
124283
125145
125097
124694
123892
122694
121166
119398
117552
115750
114061
112523
111145
109879
108692
107541
106409
105302
122227
122024
124018
124855
124778
124371
123599
122463
121028
119397
117677
115965
114326
112800
111392
110084
108847
107650
106473
105323
122150
121863
123838
124660
124566
124157
123405
122308
120937
119382
117734
116079
114476
112961
111543
110212
108948
107721
106515
105337
122112
121784
123748
124563
124462
124051
123309
122232
120890
119369
117757
116128
114543
113034
111613
110274
108997
107756
106536
105344
122111
121782
123745
124560
124459
124048
123306
122229
120887
119366
117754
116126
114541
113032
111612
110273
108996
107756
106536
105344
122149
121862
123836
124657
124564
124154
123402
122305
120934
119379
117732
116076
114474
112959
111541
110211
108947
107720
106515
105337
122227
122022
124016
124852
124775
124368
123596
122460
121025
119394
117674
115963
114324
112798
111391
110082
108846
107649
106473
105323
122343
122260
124280
125142
125094
124691
123889
122690
121162
119394
117549
115747
114059
112521
111144
109878
108690
107541
106409
105302
122495
122567
124620
125521
125516
125127
124280
123180
121637
119856
117865
115924
114130
112081
110771
109584
108476
107395
106326
105275
122674
122926
125018
125979
126042
125670
124768
123384
121844
113482
111956
110247
109194
108201
107217
106226
105243
122866
123306
125439
126479
126665
126289
125353
109948
108708
107881
107019
106119
105209
123048
123663
125837
126968
127044
126995
102503
102503
109083
108470
107566
106830
106018
105177
123193
123947
126157
127387
127589
127654
102503
102512
102512
102503
102503
107948
107313
106680
105939
105153
123276
124105
126330
127609
127947
102503
102512
102512
102512
102512
102503
107570
107163
106595
105895
105139
123276
124105
126330
127609
128013
102503
102512
102512
102512
102512
102503
107484
107163
106595
105895
105139
123193
123947
126157
127387
127814
102504
102512
102512
102503
102503
107731
107313
106680
105939
105153
123048
123663
125837
126968
127333
127303
102503
102503
102503
102503
108196
107566
106830
106018
105177
122866
123306
125439
126479
126665
126674
109496
108708
107881
107019
106119
105209
122674
122926
125018
125979
126042
125670
124948
123876
111518
110247
109194
108201
107217
106226
105243
122495
122567
124620
125521
125516
125127
124279
123271
121513
119752
117654
115665
113855
112081
110771
109584
108476
107395
106326
105275
122343
122260
124280
125142
125094
124691
123889
122690
121162
119394
117549
115747
114059
112521
111144
109878
108690
107541
106409
105302
122227
122022
124016
124852
124775
124368
123596
122460
121025
119394
117674
115963
114324
112798
111391
110082
108846
107649
106473
105323
122149
121862
123836
124657
124564
124154
123402
122305
120934
119379
117732
116076
114474
112959
111541
110211
108947
107720
106515
105337
122111
121782
123745
124560
124459
124048
123306
122229
120887
119366
117754
116126
114541
113032
111612
110273
108996
107756
106536
105344
122110
121779
123741
124555
124453
124041
123299
122222
120880
119360
117748
116120
114537
113029
111609
110270
108994
107754
106535
105343
122148
121858
123832
124652
124557
124147
123395
122298
120927
119372
117726
116071
114469
112955
111538
110209
108945
107719
106514
105336
122225
122019
124011
124847
124769
124361
123589
122453
121018
119387
117668
115958
114320
112794
111388
110080
108844
107648
106472
105322
122342
122257
124275
125137
125088
124685
123883
122684
121155
119388
117543
115742
114055
112518
111141
109876
108689
107539
106408
105302
122494
122564
124615
125516
125510
125120
124273
123173
121629
119849
117859
115920
114127
112078
110769
109582
108475
107394
106325
105274
122673
122922
125014
125974
126036
125665
124762
123379
121838
113478
111953
110245
109193
108200
107216
106225
105243
122864
123302
125435
126474
126660
126283
125351
109946
108707
107880
107019
106118
105209
123046
123660
125833
126963
127040
126991
102549
102549
109082
108470
107566
106830
106017
105177
123192
123944
126153
127383
127585
127648
102549
102564
102564
102549
102548
107947
107313
106680
105939
105152
123275
124102
126327
127605
127944
102549
102564
102565
102564
102564
102548
107570
107162
106595
105895
105139
123275
124102
126327
127605
128009
102549
102564
102565
102564
102564
102548
107483
107162
106595
105895
105139
123192
123944
126153
127383
127811
102549
102564
102564
102549
102548
107730
107313
106680
105939
105152
123046
123660
125833
126963
127330
127298
102549
102549
102549
102548
108195
107566
106830
106017
105177
122864
123302
125435
126474
126660
126672
109495
108707
107880
107019
106118
105209
122673
122922
125014
125974
126036
125665
124946
123869
111515
110245
109193
108200
107216
106225
105243
122494
122564
124615
125516
125510
125120
124273
123267
121506
119746
117649
115661
113851
112078
110769
109582
108475
107394
106325
105274
122342
122257
124275
125137
125088
124685
123883
122684
121155
119388
117543
115742
114055
112518
111141
109876
108689
107539
106408
105302
122225
122019
124011
124847
124769
124361
123589
122453
121018
119387
117668
115957
114320
112794
111388
110080
108844
107648
106472
105322
122148
121858
123832
124652
124557
124147
123395
122298
120927
119372
117726
116071
114469
112955
111538
110209
108945
107719
106514
105336
122110
121779
123741
124555
124453
124041
123299
122222
120880
119360
117748
116120
114537
113029
111609
110270
108994
107754
106535
105343
122108
121773
123735
124547
124444
124031
123289
122211
120870
119350
117739
116113
114530
113023
111604
110266
108991
107752
106534
105343
122145
121853
123825
124644
124548
124137
123385
122288
120917
119363
117717
116063
114463
112949
111534
110205
108942
107717
106513
105336
122223
122013
124005
124839
124760
124351
123579
122443
121008
119377
117660
115950
114313
112789
111384
110077
108842
107646
106471
105322
122339
122251
124269
125129
125079
124675
123872
122673
121145
119378
117534
115734
114049
112513
111137
109873
108687
107538
106407
105301
122491
122558
124608
125508
125501
125110
124262
123163
121619
119840
117851
115912
114121
112073
110766
109580
108473
107393
106324
105274
122670
122917
125007
125966
126027
125655
124752
123369
121827
113472
111949
110242
109191
108199
107215
106225
105242
122862
123296
125429
126467
126652
126274
125341
109943
108705
107879
107018
106118
105209
123044
123654
125827
126956
127032
126982
102620
102620
109080
108468
107565
106830
106017
105177
123189
123939
126148
127376
127578
127639
102621
102643
102643
102621
102620
107946
107313
106680
105939
105153
123272
124097
126321
127598
127936
102621
102643
102644
102644
102643
102620
107569
107162
106596
105895
105139
123272
124097
126321
127598
128002
102621
102643
102644
102644
102643
102620
107482
107162
106596
105895
105139
123189
123939
126148
127376
127803
102621
102643
102643
102621
102620
107729
107313
106680
105939
105153
123044
123654
125827
126956
127322
127289
102621
102620
102620
102620
108193
107565
106830
106017
105177
122862
123296
125429
126467
126652
126663
109492
108705
107879
107018
106118
105209
122670
122917
125007
125966
126027
125655
124937
123858
111511
110242
109191
108198
107215
106225
105242
122491
122558
124608
125508
125501
125110
124262
123256
121496
119736
117640
115654
113846
112073
110766
109580
108473
107393
106324
105274
122339
122251
124269
125129
125079
124675
123872
122673
121145
119378
117534
115734
114049
112513
111137
109873
108687
107538
106407
105301
122223
122013
124005
124839
124760
124351
123579
122443
121008
119377
117660
115950
114313
112789
111384
110077
108842
107646
106471
105322
122145
121853
123825
124644
124548
124137
123385
122288
120917
119363
117717
116063
114463
112949
111534
110205
108942
107717
106513
105336
122108
121773
123735
124547
124444
124031
123289
122211
120870
119350
117739
116113
114530
113023
111604
110266
108991
107752
106534
105343
122105
121766
123725
124536
124431
124018
123274
122197
120856
119337
117727
116102
114521
113015
111598
110262
108987
107750
106533
105343
122142
121846
123816
124633
124535
124123
123370
122273
120903
119349
117705
116053
114454
112942
111528
110200
108939
107715
106512
105336
122220
122006
123995
124827
124747
124337
123564
122428
120993
119364
117647
115939
114305
112782
111378
110073
108839
107644
106469
105322
122336
122244
124259
125118
125066
124661
123857
122658
121131
119364
117521
115723
114040
112507
111133
109870
108684
107536
106406
105301
122488
122551
124599
125497
125489
125096
124246
123148
121604
119826
117838
115902
114113
112068
110763
109578
108472
107392
106323
105274
122667
122910
124998
125956
126016
125642
124738
123354
121811
113464
111943
110238
109190
108198
107215
106224
105242
122858
123290
125421
126458
126640
126262
125328
109939
108704
107879
107018
106118
105208
123040
123648
125821
126947
127021
126970
102720
102719
109077
108466
107565
106831
106018
105177
123185
123934
126143
127368
127567
127627
102720
102750
102750
102720
102719
107944
107314
106682
105940
105153
123268
124092
126317
127591
127926
102720
102751
102753
102752
102750
102719
107567
107163
106598
105896
105139
123268
124092
126317
127591
127991
102720
102751
102753
102752
102750
102719
107481
107163
106598
105896
105139
123185
123934
126143
127368
127793
102721
102750
102750
102720
102719
107728
107314
106682
105940
105153
123040
123648
125821
126947
127312
127277
102720
102720
102720
102719
108192
107565
106831
106018
105177
122858
123290
125421
126458
126640
126651
109489
108704
107879
107018
106118
105208
122667
122910
124998
125956
126016
125642
124923
123843
111505
110238
109190
108198
107215
106224
105242
122488
122551
124599
125497
125489
125096
124246
123242
121481
119722
117628
115644
113838
112068
110763
109578
108472
107392
106323
105274
122336
122244
124259
125118
125066
124661
123857
122658
121131
119364
117521
115723
114040
112507
111133
109870
108684
107536
106406
105301
122220
122006
123995
124827
124747
124337
123564
122428
120993
119364
117647
115939
114305
112782
111378
110073
108839
107644
106469
105322
122142
121846
123816
124633
124535
124123
123370
122273
120903
119349
117705
116053
114454
112942
111528
110200
108939
107715
106512
105336
122105
121766
123725
124536
124431
124018
123274
122197
120856
119337
117727
116102
114521
113015
111598
110262
108987
107750
106533
105343
122101
121757
123713
124521
124414
123999
123255
122178
120838
119320
117712
116089
114509
113006
111590
110255
108983
107747
106531
105342
122138
121837
123804
124618
124519
124105
123351
122254
120885
119332
117690
116040
114443
112933
111520
110195
108934
107712
106510
105335
122215
121997
123983
124813
124730
124319
123545
122409
120975
119346
117632
115926
114295
112775
111372
110068
108835
107641
106468
105321
122332
122234
124247
125103
125050
124643
123838
122638
121111
119345
117504
115709
114031
112502
111129
109866
108682
107534
106405
105300
122483
122541
124588
125484
125473
125078
124223
123128
121580
119802
117819
115890
114104
112066
110762
109577
108471
107391
106322
105274
122662
122900
124988
125945
126002
125625
124717
123334
121790
113453
111937
110239
109192
108199
107215
106224
105242
122853
123281
125413
126449
126628
126247
125308
109934
108707
107882
107020
106118
105209
123035
123641
125816
126942
127011
126955
102846
102846
109074
108467
107570
106834
106019
105177
123180
123928
126142
127367
127558
127611
102849
102887
102887
102848
102847
107943
107320
106686
105942
105153
123263
124088
126319
127593
127917
102847
102888
102893
102892
102887
102846
107566
107171
106603
105899
105140
123263
124088
126319
127593
127983
102847
102888
102893
102892
102887
102846
107479
107171
106603
105899
105140
123180
123928
126142
127367
127783
102849
102887
102887
102849
102846
107726
107320
106686
105942
105153
123035
123641
125816
126942
127302
127261
102848
102847
102847
102846
108192
107570
106834
106019
105177
122853
123281
125413
126449
126628
126636
109485
108707
107882
107020
106118
105209
122662
122900
124988
125945
126002
125625
124905
123822
111497
110239
109192
108199
107215
106224
105242
122483
122541
124588
125484
125473
125077
124223
123219
121459
119700
117610
115629
113829
112066
110762
109577
108471
107391
106322
105274
122332
122234
124247
125103
125050
124643
123838
122638
121111
119345
117504
115709
114031
112502
111129
109866
108682
107534
106405
105300
122215
121997
123983
124813
124730
124319
123545
122409
120975
119346
117632
115926
114295
112775
111372
110068
108835
107641
106468
105321
122138
121837
123804
124618
124519
124105
123351
122254
120885
119332
117690
116040
114443
112933
111520
110195
108934
107712
106510
105335
122101
121757
123713
124521
124414
123999
123255
122178
120838
119320
117712
116089
114509
113006
111590
110255
108983
107747
106531
105342
122096
121745
123698
124503
124393
123977
123232
122154
120815
119299
117693
116072
114495
112994
111581
110248
108977
107743
106528
105341
122133
121825
123789
124600
124498
124082
123327
122230
120862
119311
117671
116024
114430
112922
111512
110188
108929
107708
106508
105334
122210
121985
123968
124794
124709
124295
123520
122384
120951
119324
117612
115910
114283
112766
111365
110062
108831
107638
106466
105320
122326
122222
124232
125085
125028
124619
123811
122611
121084
119320
117482
115691
114022
112497
111126
109863
108678
107531
106403
105300
122477
122529
124573
125467
125451
125052
124187
123096
121532
119755
117786
115875
114098
112067
110765
109577
108469
107389
106321
105273
122656
122888
124975
125930
125983
125601
124670
123308
121779
113435
111942
110247
109197
108200
107215
106223
105242
122847
123270
125403
126439
126613
126227
125280
109929
108717
107887
107021
106119
105209
123028
123631
125810
126940
127004
126935
102991
102993
109068
108476
107580
106838
106020
105178
123174
123920
126141
127373
127557
127585
103002
103059
103058
103005
103008
107952
107334
106693
105944
105154
123256
124081
126322
127606
127920
102992
103059
103070
103069
103057
102996
107566
107186
106610
105902
105141
123256
124081
126322
127606
127986
102994
103059
103070
103069
103057
103002
107478
107186
106610
105902
105141
123174
123920
126141
127373
127786
103007
103059
103058
103008
102993
107730
107334
106693
105944
105154
123028
123631
125810
126940
127299
127240
103010
102997
103003
102994
108201
107580
106838
106020
105178
122847
123270
125403
126439
126613
126621
109473
108717
107887
107021
106119
105209
122656
122888
124975
125930
125983
125601
124878
123790
111495
110247
109197
108200
107215
106223
105242
122477
122529
124573
125466
125451
125052
124187
123171
121436
119668
117581
115587
113826
112067
110765
109577
108469
107389
106321
105273
122326
122222
124232
125085
125028
124619
123811
122611
121084
119320
117482
115691
114022
112497
111126
109863
108678
107531
106403
105300
122210
121985
123968
124794
124709
124295
123520
122384
120951
119324
117612
115910
114283
112766
111365
110062
108831
107638
106466
105320
122133
121825
123789
124600
124498
124082
123327
122230
120862
119311
117671
116024
114430
112922
111512
110188
108929
107708
106508
105334
122096
121746
123698
124503
124393
123977
123232
122155
120815
119299
117693
116072
114495
112994
111581
110248
108977
107743
106528
105341
122089
121731
123680
124480
124368
123949
123203
122126
120788
119274
117670
116053
114479
112980
111569
110239
108971
107738
106526
105340
122127
121810
123770
124577
124472
124054
123298
122201
120834
119285
117648
116004
114413
112909
111501
110179
108923
107704
106505
105333
122204
121969
123948
124771
124683
124267
123490
122354
120923
119299
117590
115891
114267
112753
111355
110054
108825
107634
106464
105320
122319
122206
124212
125061
125001
124590
123781
122581
121055
119293
117458
115671
114007
112486
111117
109856
108673
107528
106401
105299
122470
122513
124553
125443
125424
125021
124153
123060
121486
119709
117752
115856
114088
112059
110759
109572
108466
107386
106320
105273
122648
122872
124955
125907
125956
125571
124619
123280
121772
103029
103029
103028
113416
111942
110245
109194
108198
107213
106222
105241
122839
123253
125383
126417
126586
126198
125246
103030
103041
103061
103066
103050
103031
103027
109923
108717
107886
107020
106118
105208
123020
123614
125791
126920
126986
126908
103030
103057
103115
103156
103164
103137
103082
103035
109063
108482
107581
106838
106020
105178
123165
123904
126124
127356
127543
127550
103042
103116
103254
103275
103274
103252
103157
103069
103028
107960
107337
106694
105944
105154
123247
124065
126306
127592
127911
103030
103062
103158
103276
103293
103292
103273
103184
103106
103033
107566
107190
106612
105902
105141
123247
124065
126306
127591
127978
103031
103067
103166
103276
103293
103292
103273
103190
103115
103035
107476
107190
106612
105902
105141
123165
123904
126124
127356
127776
103030
103052
103139
103254
103275
103274
103252
103174
103089
103029
107733
107337
106694
105944
105154
123020
123614
125791
126920
127284
127213
103033
103084
103159
103187
103191
103174
103123
103050
103028
108207
107581
106838
106020
105178
122839
123253
125383
126417
126586
126599
103029
103037
103071
103108
103116
103090
103050
103028
109461
108717
107886
107020
106118
105208
122648
122871
124955
125907
125956
125571
124846
123761
103031
103034
103036
103030
103029
111491
110245
109194
108198
107213
106222
105241
122470
122513
124553
125443
125424
125021
124153
123123
121411
119638
117549
115543
113818
112059
110759
109572
108466
107386
106320
105273
122319
122206
124212
125061
125001
124590
123781
122581
121055
119293
117459
115671
114007
112486
111117
109856
108673
107528
106401
105299
122204
121969
123948
124771
124683
124267
123490
122354
120923
119299
117590
115891
114267
112753
111355
110054
108825
107634
106464
105320
122127
121810
123770
124577
124472
124054
123298
122201
120834
119285
117648
116004
114413
112909
111501
110179
108923
107704
106505
105333
122089
121731
123680
124480
124368
123949
123203
122126
120788
119274
117670
116053
114478
112980
111569
110239
108971
107738
106526
105340
122082
121713
123657
124453
124336
123916
123169
122092
120756
119244
117643
116029
114458
112963
111556
110229
108963
107733
106523
105339
122119
121792
123747
124549
124440
124020
123264
122168
120802
119256
117621
115980
114393
112892
111487
110169
108916
107699
106502
105333
122195
121951
123925
124743
124650
124233
123456
122321
120891
119270
117563
115867
114246
112736
111341
110044
108818
107629
106461
105319
122311
122187
124187
125031
124968
124555
123747
122549
121025
119266
117435
115651
113986
112466
111102
109845
108666
107523
106399
105298
122461
122492
124526
125411
125389
124987
124127
123033
121473
119701
117739
115835
114065
112036
110740
109560
108458
107382
106317
105272
122639
122849
124926
125872
125918
125535
124605
123246
121719
113406
111918
110223
109180
108190
107208
106220
105241
122829
123229
125351
126377
126546
126164
125217
109915
108701
107877
107016
106116
105208
123010
123589
125755
126874
126945
126874
103410
103435
109058
108468
107570
106832
106018
105177
123155
123877
126084
127303
127499
127526
103442
103556
103554
103457
103401
107947
107323
106687
105942
105153
123237
124037
126263
127532
127864
103412
103557
103571
103569
103553
103443
107563
107175
106605
105899
105140
123237
124037
126263
127532
127930
103438
103557
103570
103569
103553
103448
107475
107175
106605
105899
105140
123155
123877
126084
127303
127729
103461
103556
103554
103475
103439
107726
107323
106687
105942
105153
123010
123589
125755
126874
127240
127180
103405
103446
103451
103440
108195
107570
106832
106018
105177
122829
123229
125351
126377
126546
126561
109462
108701
107877
107016
106116
105208
122639
122849
124926
125872
125918
125535
124814
123729
111474
110223
109180
108189
107208
106220
105241
122461
122492
124526
125411
125389
124987
124127
123108
121377
119614
117534
115549
113795
112036
110740
109560
108458
107382
106317
105272
122311
122187
124187
125031
124968
124555
123747
122549
121025
119266
117435
115651
113986
112466
111102
109845
108666
107523
106399
105298
122195
121951
123925
124743
124650
124233
123456
122321
120891
119270
117563
115867
114246
112736
111341
110044
108818
107629
106461
105319
122119
121792
123747
124549
124440
124020
123264
122168
120802
119256
117621
115980
114393
112892
111487
110169
108916
107699
106502
105333
122082
121713
123657
124453
124336
123916
123169
122092
120756
119244
117643
116029
114458
112963
111556
110229
108963
107733
106523
105339
122072
121692
123630
124420
124299
123876
123128
122053
120718
119209
117612
116001
114435
112944
111541
110218
108955
107728
106520
105338
122109
121770
123719
124516
124402
123980
123223
122128
120764
119221
117590
115953
114369
112872
111472
110158
108907
107693
106499
105332
122185
121928
123896
124708
124612
124192
123415
122281
120853
119235
117533
115840
114223
112716
111326
110032
108809
107624
106458
105318
122300
122163
124157
124995
124927
124513
123706
122509
120989
119235
117408
115627
113962
112445
111085
109833
108658
107518
106396
105298
122450
122466
124493
125372
125347
124945
124091
123002
121460
119693
117724
115809
114038
112012
110720
109546
108449
107377
106315
105271
122627
122822
124890
125828
125872
125489
124588
123206
121668
113394
111891
110203
109165
108180
107203
106217
105240
122817
123199
125311
126329
126496
126120
125179
109907
108685
107867
107010
106113
105207
122997
123557
125710
126819
126892
126831
103784
103783
109055
108452
107558
106826
106015
105176
123142
123842
126033
127241
127441
127491
103787
103893
103890
103788
103778
107934
107310
106680
105938
105152
123224
124001
126209
127466
127802
103787
103895
103902
103899
103888
103781
107560
107161
106597
105896
105139
123224
124001
126209
127465
127868
103788
103895
103902
103899
103888
103785
107474
107161
106597
105896
105139
123142
123842
126033
127241
127668
103794
103893
103890
103796
103779
107719
107310
106680
105938
105152
122997
123557
125710
126819
127184
127138
103784
103786
103788
103780
108180
107558
106826
106015
105176
122817
123199
125311
126329
126496
126511
109462
108685
107867
107010
106113
105207
122627
122822
124890
125828
125872
125489
124776
123693
111456
110203
109165
108180
107203
106217
105240
122450
122466
124493
125372
125347
124945
124091
123092
121339
119591
117517
115551
113766
112012
110720
109546
108449
107377
106315
105271
122300
122163
124157
124995
124927
124513
123706
122509
120989
119235
117408
115627
113961
112445
111085
109833
108658
107518
106396
105298
122185
121928
123896
124708
124612
124192
123415
122281
120853
119235
117533
115840
114223
112716
111326
110032
108809
107624
106458
105318
122109
121770
123719
124516
124402
123980
123223
122128
120764
119221
117590
115953
114369
112872
111472
110158
108907
107693
106499
105332
122072
121692
123630
124420
124299
123876
123128
122053
120718
119209
117612
116001
114435
112944
111541
110218
108955
107728
106520
105338
122061
121666
123597
124382
124255
123829
123080
122006
120673
119168
117575
115970
114409
112923
111524
110205
108946
107722
106516
105337
122098
121744
123686
124476
124358
123932
123175
122081
120720
119180
117554
115921
114343
112851
111455
110145
108899
107688
106496
105330
122173
121900
123861
124667
124565
124143
123366
122233
120808
119194
117497
115810
114197
112695
111309
110020
108801
107618
106455
105317
122287
122133
124120
124952
124879
124462
123655
122460
120943
119195
117373
115598
113937
112424
111069
109821
108650
107513
106393
105297
122436
122435
124454
125326
125296
124892
124040
122955
121421
119659
117693
115780
114013
111993
110705
109535
108442
107372
106312
105270
122612
122788
124848
125779
125818
125433
124539
123157
121625
113375
111874
110191
109155
108173
107199
106216
105239
122801
123164
125266
126277
126440
126066
125129
109899
108678
107861
107007
106111
105206
122981
123519
125662
126764
126837
126778
104172
104170
109049
108446
107553
106823
106013
105176
123125
123802
125982
127184
127385
127441
104175
104280
104276
104169
104164
107931
107305
106677
105937
105152
123208
123960
126156
127408
127747
104177
104284
104285
104281
104272
104164
107560
107158
106594
105894
105139
123208
123960
126156
127408
127813
104177
104284
104285
104281
104272
104165
107475
107158
106594
105894
105139
123125
123802
125982
127184
127613
104178
104280
104276
104171
104164
107718
107305
106677
105937
105152
122981
123519
125662
126764
127129
127087
104174
104173
104171
104166
108176
107553
106823
106013
105176
122801
123164
125266
126277
126440
126457
109455
108678
107861
107007
106111
105206
122612
122788
124848
125779
125818
125433
124723
123645
111443
110191
109155
108173
107199
106216
105239
122436
122435
124454
125326
125296
124892
124039
123047
121297
119556
117485
115525
113743
111993
110705
109535
108442
107372
106312
105270
122287
122133
124120
124952
124879
124461
123654
122460
120943
119195
117373
115598
113937
112424
111069
109821
108650
107513
106393
105297
122173
121900
123861
124667
124565
124143
123366
122233
120808
119194
117497
115810
114197
112695
111309
110020
108801
107618
106455
105317
122098
121744
123686
124476
124358
123932
123175
122081
120720
119180
117554
115921
114343
112851
111455
110145
108899
107688
106496
105330
122061
121666
123597
124382
124255
123829
123080
122006
120673
119168
117575
115970
114409
112923
111524
110205
108946
107722
106516
105337
122048
121636
123559
124336
124204
123774
123024
121951
120622
119121
117534
115934
114379
112899
111506
110191
108936
107715
106513
105336
122084
121713
123647
124430
124305
123876
123118
122025
120668
119133
117512
115886
114314
112828
111438
110132
108889
107681
106492
105329
122159
121868
123820
124619
124511
124085
123307
122176
120755
119147
117456
115775
114169
112673
111292
110008
108792
107613
106452
105316
122271
122098
124077
124901
124822
124401
123594
122402
120890
119147
117333
115565
113910
112404
111053
109810
108643
107509
106391
105296
122419
122397
124408
125272
125236
124829
123977
122898
121369
119612
117653
115748
113988
111975
110692
109526
108436
107369
106310
105270
122594
122748
124799
125722
125755
125368
124478
123099
121572
113352
111857
110181
109148
108169
107196
106214
105239
122782
123121
125215
126218
126376
126003
125067
109891
108674
107858
107005
106111
105206
122960
123475
125609
126703
126776
126715
104599
104596
109045
108443
107552
106823
106014
105176
123104
123757
125928
127123
127324
127380
104604
104715
104709
104592
104588
107932
107306
106677
105938
105152
123186
123914
126101
127346
127687
104607
104721
104719
104712
104703
104587
107562
107160
106595
105895
105139
123186
123914
126101
127346
127753
104607
104721
104719
104712
104703
104587
107477
107160
106595
105895
105139
123104
123757
125928
127123
127552
104605
104715
104709
104592
104587
107719
107306
106677
105937
105152
122960
123475
125609
126703
127068
127024
104602
104600
104596
104591
108174
107552
106823
106014
105176
122782
123121
125215
126218
126376
126394
109449
108674
107858
107005
106111
105206
122594
122748
124799
125722
125755
125368
124661
123587
111429
110181
109148
108169
107196
106214
105239
122419
122397
124408
125272
125236
124829
123977
122990
121245
119509
117446
115494
113719
111975
110692
109526
108436
107369
106310
105270
122271
122098
124077
124901
124822
124401
123594
122402
120890
119147
117333
115565
113910
112404
111053
109810
108643
107509
106391
105296
122159
121868
123820
124619
124511
124085
123307
122176
120755
119147