/*--------------------------------*- C++ -*----------------------------------*\
  =========                 |
  \\      /  F ield         | OpenFOAM: The Open Source CFD Toolbox
   \\    /   O peration     | Website:  https://openfoam.org
    \\  /    A nd           | Version:  11
     \\/     M anipulation  |
\*---------------------------------------------------------------------------*/
FoamFile
{
    format      ascii;
    class       surfaceScalarField;
    location    "0.0003";
    object      phi;
}
// * * * * * * * * * * * * * * * * * * * * * * * * * * * * * * * * * * * * * //

dimensions      [1 0 -1 0 0 0 0];

internalField   nonuniform List<scalar> 
62564
(
0.0024981
-1.901e-05
8.15299e-07
0.00247782
-5.9192e-05
1.92841e-06
0.00253686
-9.32217e-05
2.62754e-06
0.00259776
-0.000125831
3.39505e-06
0.00265032
-0.000158551
4.13332e-06
0.00268082
-0.000183974
4.69274e-06
0.00267623
-0.000193455
5.06103e-06
0.00262393
-0.000180806
5.23841e-06
0.00250909
-0.000141353
5.18602e-06
0.00232493
-8.23231e-05
4.92038e-06
0.00208305
-2.28275e-05
4.49999e-06
0.00180448
2.61254e-05
3.99437e-06
0.00152068
5.20653e-05
3.46939e-06
0.00125453
6.14933e-05
2.93859e-06
0.00102191
5.95681e-05
2.39842e-06
0.000832638
5.07859e-05
1.87794e-06
0.000691272
3.88148e-05
1.38468e-06
0.000596715
2.67021e-05
9.41643e-07
0.00054275
1.53321e-05
5.37263e-07
5.21231e-06
1.83579e-07
0.00246886
-3.95326e-05
8.18821e-07
0.00245122
-0.00012067
1.94098e-06
0.00251279
-0.000188447
2.64508e-06
0.00257962
-0.000256629
3.42537e-06
0.00264334
-0.000326958
4.15148e-06
0.00268978
-0.000382335
4.67918e-06
0.00270411
-0.000403973
4.99391e-06
0.00267294
-0.000380944
5.10515e-06
0.00257245
-0.000295697
5.06524e-06
0.00238699
-0.000162229
4.88734e-06
0.00213357
-3.30634e-05
4.55608e-06
0.00183662
7.1763e-05
4.08145e-06
0.00153575
0.000122757
3.53865e-06
0.00125732
0.000137056
2.95624e-06
0.00101629
0.000129191
2.39184e-06
0.000822699
0.000107398
1.86195e-06
0.000680029
8.02378e-05
1.36351e-06
0.00058558
5.43069e-05
9.22997e-07
0.000532086
3.08299e-05
5.25623e-07
1.0418e-05
1.80133e-07
0.00240895
-6.05931e-05
8.35583e-07
0.00239315
-0.000183222
1.97709e-06
0.00245832
-0.000286076
2.70233e-06
0.0025355
-0.000395737
3.51537e-06
0.00262121
-0.000514713
4.24973e-06
0.00270266
-0.000612493
4.72194e-06
0.00275474
-0.000647988
4.91033e-06
0.00277564
-0.000629186
4.96002e-06
0.00271212
-0.000484082
4.88312e-06
0.00251992
-0.000232823
4.81389e-06
0.00224164
-1.60705e-05
4.59279e-06
0.00189882
0.000165641
4.20678e-06
0.0015604
0.000234574
3.55928e-06
0.00125766
0.000240946
2.90314e-06
0.00100072
0.000218124
2.33054e-06
0.000800107
0.000174089
1.80261e-06
0.000656344
0.000125406
1.30576e-06
0.000562997
8.2847e-05
8.82052e-07
0.000510823
4.62835e-05
5.02425e-07
1.55293e-05
1.70578e-07
0.00231854
-8.10067e-05
8.5838e-07
0.00230212
-0.000243771
2.04031e-06
0.00236849
-0.000382787
2.81914e-06
0.00245655
-0.000542261
3.68268e-06
0.00257394
-0.00072965
4.42108e-06
0.00271436
-0.000895882
4.7025e-06
0.0028207
-0.00093732
4.54349e-06
0.00293329
-0.000219316
3.61209e-06
-0.000231532
-0.000255337
-0.00025303
0.00296036
-0.000205801
4.20056e-06
-0.0001658
-0.00021618
-0.000170599
0.00273314
-8.58786e-05
4.70786e-06
-4.44684e-05
-8.77653e-05
-4.51571e-05
0.00241669
-1.03743e-05
4.63202e-06
3.25594e-05
-1.07858e-05
3.26929e-05
0.00198091
7.54746e-05
4.45447e-06
0.000100889
7.66537e-05
0.00010309
0.00158261
0.000108332
3.56505e-06
9.73529e-05
0.000109659
9.82e-05
0.00124693
0.00038548
2.76254e-06
0.000967841
0.000334538
2.21983e-06
0.000759951
0.00025279
1.71247e-06
0.000617685
0.000173148
1.21859e-06
0.00052798
0.00011084
8.20261e-07
0.000478827
6.06384e-05
4.64794e-07
2.01463e-05
1.58038e-07
0.00219877
-9.83134e-05
8.70458e-07
0.00217499
-0.000294755
2.12469e-06
0.00223329
-0.000468029
2.99171e-06
0.0023223
-0.000684279
3.90781e-06
0.00247193
-0.000969504
4.6884e-06
0.00274236
-0.00130056
4.78653e-06
0.000682324
-0.000333342
3.27783e-06
-0.000298961
-0.000375747
-0.000320504
0.000715648
0.000768413
0.000798475
0.000708988
-0.000266284
-2.90101e-06
0.000811
-0.000273657
-1.02464e-05
-0.000761056
-0.000830086
0.000797227
-8.27246e-05
-9.39536e-07
-0.000741669
0.000697637
2.54959e-06
7.71272e-07
-0.000651703
0.000582015
0.000113841
1.38797e-06
-0.000494164
0.000426078
0.000149551
2.72484e-07
0.00120164
0.00012257
2.36427e-06
0.000130307
0.000123365
0.000131513
-0.000368639
-0.000380276
-0.000373005
-0.000382862
0.000898599
0.000482031
2.00294e-06
0.000695576
0.00033358
1.51526e-06
0.000561027
0.000218944
1.07703e-06
0.000480083
0.000134294
7.33975e-07
0.000436816
7.16571e-05
4.1883e-07
2.35481e-05
1.42502e-07
0.00205399
-0.000108162
8.79716e-07
0.00201004
-0.000322324
2.22932e-06
0.00203754
-0.000517566
3.1681e-06
0.00209013
-0.000781778
4.00562e-06
0.00225705
-0.00121497
4.78364e-06
0.00064191
-0.000398729
2.56812e-06
0.000640069
0.000729467
0.000704657
-0.000510077
-0.000438914
-0.00052959
0.000710898
-0.000418001
-1.53894e-06
-0.00075488
0.000966147
-0.000532309
-7.31992e-06
0.000304222
0.000572351
-0.000582452
-1.8409e-06
-0.000374256
0.000537321
1.11353e-06
-0.000185822
-0.000363944
0.000324883
0.000139993
9.15947e-07
0.000769161
0.000169334
1.7259e-06
-0.000264312
-0.000265439
-0.000267758
-0.000268053
0.000145202
0.000171555
0.000146576
0.000589195
0.000401461
1.27115e-06
0.000483134
0.000244334
9.25354e-07
0.00042032
0.000145005
6.41899e-07
0.000386981
7.58475e-05
3.68345e-07
2.47032e-05
1.26268e-07
0.0018952
-0.000105851
8.85921e-07
0.00181663
-0.000311091
2.35237e-06
0.00178296
-0.000499643
3.34306e-06
0.00172324
-0.000755915
3.75344e-06
0.000417545
-0.000268452
2.55262e-06
0.000363814
0.000484357
0.000413799
-0.000327766
-0.000291016
-0.000342343
0.000445132
-0.000434136
-2.47141e-06
0.000695021
-0.000704345
1.98492e-07
-0.000280046
0.000162932
0.00026538
8.84214e-07
0.000445455
0.000100059
9.90392e-07
-0.00013863
-0.00011416
-0.000139432
-0.000114177
8.31344e-05
0.000100801
8.35386e-05
0.000390634
0.000229059
7.71801e-07
0.000354283
0.000135465
5.4698e-07
0.000334061
7.03148e-05
3.18499e-07
2.28025e-05
1.10075e-07
0.00173959
-8.73751e-05
8.83163e-07
0.00161914
-0.000253464
2.52809e-06
0.00152152
-0.000411357
3.81886e-06
0.000319384
-0.000654619
2.51888e-06
0.000304229
0.000396619
0.000378224
0.000303611
-0.000254642
-2.32187e-06
0.000412946
0.000439579
-0.000546072
-7.31131e-06
-0.000307579
-3.84898e-09
-8.00151e-08
-2.26451e-06
-8.96506e-09
1.98706e-08
-8.84763e-08
-3.56973e-06
-0.000147341
0.000140507
-6.02804e-08
-9.2487e-05
8.67108e-05
9.52566e-05
-7.8565e-10
0.00030281
0.000182617
5.68874e-07
-8.08552e-05
-7.82502e-05
-8.02845e-05
-7.76015e-05
0.000291837
0.000106384
4.52228e-07
0.000284924
5.46873e-05
2.75008e-07
1.76654e-05
9.76005e-08
0.00161037
-5.09011e-05
8.66768e-07
0.00144362
-0.000145407
2.63639e-06
0.00126594
-0.000236645
3.90925e-06
0.000233105
-0.000392518
2.51919e-06
0.000206345
0.000291866
0.000260327
0.000210685
-0.000200318
-8.27604e-07
0.0002208
0.000291384
-0.000286521
-7.01893e-06
4.35108e-08
3.33486e-08
-6.83061e-08
-8.38887e-08
-5.2587e-06
7.34212e-08
-9.06567e-08
-4.15802e-05
1.25808e-07
1.18586e-07
9.47003e-09
-4.04856e-08
8.62153e-08
1.27321e-07
-5.37342e-08
-2.21048e-07
1.16337e-07
-8.96636e-08
-4.15719e-05
1.13407e-07
1.19415e-07
-4.6371e-08
-1.07732e-09
1.53294e-07
-1.7299e-08
-1.86506e-07
7.48524e-08
8.8938e-08
-8.08798e-08
-4.88242e-06
-2.37604e-08
-2.3839e-06
-4.47708e-08
-8.32288e-05
5.62481e-05
9.86847e-05
-1.35833e-08
-8.25842e-05
0.000230583
0.000104933
4.31326e-07
-5.56659e-05
-4.81798e-05
-5.50969e-05
-4.74859e-05
0.000242181
5.93944e-05
3.91983e-07
0.000246747
3.01394e-05
2.46634e-07
9.69493e-06
8.97389e-08
0.00153518
2.24598e-09
8.57178e-07
0.00133366
4.88413e-09
2.68715e-06
0.00109813
3.80616e-09
3.88107e-06
0.000157516
2.98886e-09
2.4905e-06
0.00014833
0.000201573
0.000192465
0.000137081
9.45307e-05
-7.30286e-05
-2.58964e-06
-6.8312e-08
-1.28444e-08
-2.26837e-06
-1.45319e-08
2.29377e-10
-4.17129e-05
1.11491e-07
1.10514e-07
-8.99274e-09
-5.00707e-08
1.05703e-07
1.40786e-07
-2.80757e-08
-1.96503e-07
8.63563e-08
5.325e-09
-4.18739e-05
1.4803e-07
1.79504e-08
-4.18394e-05
1.32829e-07
1.29191e-08
-4.16007e-05
1.21788e-07
1.7325e-08
-3.73222e-08
1.37586e-07
1.00478e-07
-2.05165e-07
-3.87062e-08
-2.81196e-08
7.69508e-08
8.19124e-09
-6.03129e-06
-5.32774e-05
2.24914e-05
2.40395e-05
-9.54334e-08
0.000187342
-6.02792e-10
3.67624e-07
-3.40592e-05
-3.19594e-05
-3.34018e-05
-3.12925e-05
0.000214137
-2.24448e-10
3.60409e-07
0.000225752
1.30915e-10
2.32883e-07
1.86916e-10
8.64351e-08
0.00153518
5.09043e-05
8.57135e-07
0.00133366
0.000145416
2.68722e-06
0.00109813
0.000236652
3.88047e-06
0.000148342
0.000392525
2.49082e-06
0.000157504
0.00019248
0.000201559
2.96405e-09
7.70956e-05
7.30344e-05
-3.00188e-06
-1.9296e-09
-8.59261e-08
1.27247e-08
-3.54169e-06
-3.21337e-08
1.03784e-07
-4.15538e-05
1.07117e-07
1.1581e-07
-5.26616e-08
-9.67686e-10
1.40815e-07
-3.76761e-08
-2.03952e-07
9.67217e-08
8.26994e-08
-4.17546e-05
1.4796e-07
8.00304e-08
-4.17306e-05
1.27196e-07
1.39848e-07
-4.15001e-05
1.25621e-07
-3.26503e-08
6.72787e-09
9.85793e-08
-2.00627e-07
-3.43576e-08
6.49687e-09
9.49782e-08
-6.59825e-09
-4.81346e-06
8.89145e-10
1.79075e-05
-2.40411e-05
-9.39244e-08
0.000187341
-0.000104932
3.67599e-07
-3.19446e-05
-3.40748e-05
-3.12778e-05
-3.34176e-05
0.000214136
-5.93946e-05
3.6061e-07
0.000225751
-3.01393e-05
2.32914e-07
-9.69464e-06
8.63788e-08
0.00161037
8.73753e-05
8.66786e-07
0.00144363
0.000253465
2.63657e-06
0.00126595
0.000411357
3.90949e-06
0.000206355
0.000654619
2.51982e-06
0.000233104
0.00026034
0.000291866
-0.000137078
0.000142386
0.000200322
-1.39221e-06
7.23072e-08
-7.53903e-08
8.18788e-08
-4.89533e-06
8.72783e-08
1.28451e-07
-4.16382e-05
1.14029e-07
7.34696e-09
-4.64575e-08
1.27283e-07
9.14809e-08
-2.1241e-07
-4.13297e-08
1.5204e-07
1.20111e-07
-4.15872e-05
1.12932e-07
-3.94236e-08
-3.5997e-09
1.15532e-07
-1.8661e-07
-2.32239e-08
9.60348e-08
8.40721e-08
-4.89206e-06
2.84001e-08
2.41333e-08
-4.55668e-06
-8.4494e-08
5.32825e-05
3.71078e-05
-9.86873e-05
-2.91019e-08
0.00023058
-0.000182623
4.31422e-07
-4.81671e-05
-5.56727e-05
-4.74736e-05
-5.5104e-05
0.000242179
-0.000106386
3.91997e-07
0.000246746
-5.4688e-05
2.46959e-07
-1.76655e-05
8.96763e-08
0.0017396
0.000105848
8.83357e-07
0.00161915
0.000311086
2.52861e-06
0.00152153
0.000499639
3.81985e-06
0.000304232
0.000755913
2.52051e-06
0.000319384
0.00037823
0.000396617
-0.000220795
0.000267465
0.000254641
-5.84819e-07
-0.000291384
0.000546075
-9.71141e-06
-0.000249694
-1.99011e-08
-2.3585e-06
-4.85071e-08
-3.72105e-08
2.05318e-08
8.03519e-08
-6.03823e-06
-9.16962e-09
1.00763e-08
8.99323e-08
-4.81654e-06
9.56242e-09
3.61839e-08
-4.57094e-06
-7.63524e-08
8.25858e-05
-7.03315e-05
7.3596e-05
-9.52538e-05
-1.29386e-07
0.000302812
-0.000229055
5.69085e-07
-7.82449e-05
-8.08663e-05
-7.75966e-05
-8.02959e-05
0.000291838
-0.000135464
4.52528e-07
0.000284925
-7.03148e-05
2.74952e-07
-2.28027e-05
9.77681e-08
0.0018952
0.000108158
8.86231e-07
0.00181663
0.000322316
2.35313e-06
0.00178296
0.000517558
3.34413e-06
0.00172325
0.000781771
3.75458e-06
0.000363807
0.00121496
2.55367e-06
0.000417561
0.000413793
0.000484372
-0.00026844
-0.000327784
-0.000291003
-0.000342359
-0.000412947
0.000332147
0.000434126
2.09699e-06
0.000147342
0.000105856
-0.000265382
-1.4043e-07
0.000445451
-0.000401455
9.90323e-07
-0.000114166
-0.00013863
-0.000114184
-0.000139432
0.000100045
8.31557e-05
0.000100785
8.35588e-05
0.000390635
-0.000244334
7.72027e-07
0.000354281
-0.000145002
5.46923e-07
0.000334061
-7.58497e-05
3.18604e-07
-2.47034e-05
1.10055e-07
0.00205399
9.83104e-05
8.80068e-07
0.00201004
0.000294747
2.2301e-06
0.00203754
0.000468022
3.16926e-06
0.00209012
0.000684277
4.00693e-06
0.00225702
0.000969528
4.78523e-06
0.000640039
0.00130057
2.56869e-06
-0.000398736
-0.000510075
-0.000438919
-0.000529588
0.000641929
0.00070463
0.000729486
-0.00069503
0.000889182
0.000417982
8.91724e-06
-0.000536404
0.00053231
-5.25176e-06
-0.000290581
0.000412318
-0.000139995
7.65891e-07
0.00076915
-0.000482037
1.72659e-06
0.000169346
0.000145208
0.000171568
0.000146579
-0.000265454
-0.000264307
-0.000268067
-0.000267751
0.000589194
-0.000333585
1.27162e-06
0.000483134
-0.000218946
9.25381e-07
0.000420323
-0.000134294
6.42037e-07
0.000386983
-7.1657e-05
3.68364e-07
-2.35483e-05
1.26283e-07
0.00219877
8.10048e-05
8.70755e-07
0.00217499
0.000243766
2.12542e-06
0.00223328
0.000382782
2.99265e-06
0.00232229
0.00054226
3.90913e-06
0.00247195
0.000729655
4.68971e-06
0.00274237
0.000895881
4.78869e-06
0.000715642
0.000937311
3.27962e-06
-0.000333339
-0.000298939
-0.000375746
-0.000320483
0.000682319
0.000798468
0.000768407
-0.000304228
0.000729536
0.00026629
2.46703e-06
-0.00057235
0.00106442
0.000273646
-6.97204e-06
-0.000790725
-0.000826804
0.000717672
8.27404e-05
-5.8728e-09
-0.00067344
0.000649758
-2.53643e-06
3.4349e-07
-0.000670273
0.000754151
-0.000113851
6.08422e-07
0.000185827
-0.00049224
0.000430814
-0.000149559
-9.25933e-08
0.00120165
-0.000385489
2.36368e-06
0.000122567
0.000130306
0.000123367
0.000131512
-0.000380287
-0.000368629
-0.000382871
-0.000372991
0.000898605
-0.000334539
2.00431e-06
0.000695579
-0.000252795
1.51674e-06
0.000561028
-0.000173148
1.07717e-06
0.000480085
-0.00011084
7.34182e-07
0.000436818
-6.06381e-05
4.18769e-07
-2.01463e-05
1.42513e-07
0.00231854
6.05924e-05
8.58603e-07
0.00230211
0.00018322
2.04081e-06
0.00236848
0.000286074
2.81994e-06
0.00245654
0.000395736
3.68371e-06
0.00257394
0.000514714
4.4225e-06
0.00271436
0.000612491
4.70435e-06
0.0028207
0.000647981
4.54629e-06
0.00293329
0.000629179
3.6154e-06
-0.000219318
-0.000231519
-0.00025534
-0.000253028
0.00296039
0.000484099
4.20453e-06
-0.000205802
-0.000165817
-0.000216175
-0.000170628
0.00273315
0.000232829
4.71237e-06
-8.58714e-05
-4.44764e-05
-8.774e-05
-4.51808e-05
0.0024167
1.60748e-05
4.63438e-06
-1.03662e-05
3.25521e-05
-1.07799e-05
3.26853e-05
0.0019809
-0.00016564
4.4564e-06
7.5503e-05
0.000100872
7.66731e-05
0.000103082
0.00158261
-0.000234593
3.56667e-06
0.000108354
9.7338e-05
0.000109681
9.81825e-05
0.00124693
-0.000240953
2.76376e-06
0.000967846
-0.000218128
2.22041e-06
0.000759953
-0.000174089
1.71199e-06
0.000617687
-0.000125406
1.21864e-06
0.000527982
-8.28466e-05
8.20284e-07
0.000478829
-4.62832e-05
4.64857e-07
-1.55291e-05
1.58005e-07
0.00240894
3.95323e-05
8.35729e-07
0.00239315
0.000120669
1.97751e-06
0.00245831
0.000188446
2.70289e-06
0.0025355
0.000256629
3.51624e-06
0.00262121
0.000326958
4.25096e-06
0.00270266
0.000382334
4.72347e-06
0.00275474
0.00040397
4.91232e-06
0.00277564
0.000380943
4.96279e-06
0.00271213
0.000295702
4.8857e-06
0.00251993
0.000162231
4.81682e-06
0.00224165
3.30651e-05
4.5954e-06
0.00189884
-7.17674e-05
4.20895e-06
0.0015604
-0.000122761
3.5605e-06
0.00125766
-0.000137059
2.90396e-06
0.00100072
-0.000129195
2.33104e-06
0.000800107
-0.000107399
1.80265e-06
0.000656341
-8.02334e-05
1.3058e-06
0.000562999
-5.43107e-05
8.82179e-07
0.000510825
-3.08296e-05
5.02626e-07
-1.0418e-05
1.70695e-07
0.00246885
1.90099e-05
8.18941e-07
0.00245121
5.91918e-05
1.9413e-06
0.00251278
9.32213e-05
2.64561e-06
0.00257962
0.000125831
3.42608e-06
0.00264334
0.00015855
4.15243e-06
0.00268978
0.000183973
4.68047e-06
0.00270411
0.000193454
4.99556e-06
0.00267293
0.000180806
5.10704e-06
0.00257245
0.000141354
5.06733e-06
0.002387
8.23236e-05
4.88957e-06
0.00213357
2.28281e-05
4.55807e-06
0.00183663
-2.61267e-05
4.08302e-06
0.00153575
-5.20666e-05
3.53987e-06
0.00125732
-6.14949e-05
2.95699e-06
0.00101629
-5.95697e-05
2.39231e-06
0.000822694
-5.0781e-05
1.86199e-06
0.000680034
-3.88199e-05
1.36368e-06
0.000585581
-2.67021e-05
9.22953e-07
0.000532088
-1.5332e-05
5.25886e-07
-5.21233e-06
1.80277e-07
0.00249809
8.15416e-07
0.00247781
1.92875e-06
0.00253686
2.62804e-06
0.00259775
3.39575e-06
0.00265032
4.13414e-06
0.00268081
4.69385e-06
0.00267623
5.06243e-06
0.00262393
5.24005e-06
0.0025091
5.18777e-06
0.00232493
4.92219e-06
0.00208305
4.5017e-06
0.00180448
3.99585e-06
0.00152068
3.47054e-06
0.00125453
2.93928e-06
0.00102191
2.39881e-06
0.000832644
1.87804e-06
0.000691273
1.38463e-06
0.000596717
9.41678e-07
0.000542752
5.37267e-07
1.83555e-07
0.00249917
-1.89863e-05
1.23161e-06
0.00247924
-5.91283e-05
3.4756e-06
0.00253828
-9.31533e-05
5.22289e-06
0.00259904
-0.000125729
6.88282e-06
0.0026515
-0.000158449
8.34575e-06
0.00268182
-0.000183864
9.52187e-06
0.00267706
-0.000193313
1.02385e-05
0.00262465
-0.000180704
1.05687e-05
0.00250971
-0.000141297
1.04914e-05
0.00232536
-8.23014e-05
1.00696e-05
0.00208321
-2.28747e-05
9.3878e-06
0.00180438
2.60254e-05
8.4143e-06
0.00152042
5.19489e-05
7.28705e-06
0.00125422
6.13761e-05
6.11684e-06
0.00102159
5.94778e-05
4.94856e-06
0.000832342
5.07064e-05
3.86288e-06
0.000691006
3.87577e-05
2.8287e-06
0.00059647
2.66663e-05
1.9194e-06
0.000542517
1.53126e-05
1.09322e-06
5.206e-06
3.72575e-07
0.00246994
-3.94985e-05
1.24918e-06
0.0024526
-0.000120519
3.52165e-06
0.00251414
-0.000188308
5.29544e-06
0.00258091
-0.000256493
6.95048e-06
0.00264462
-0.0003269
8.42676e-06
0.00269107
-0.00038237
9.55647e-06
0.00270555
-0.000404176
1.02241e-05
0.0026747
-0.000381501
1.05494e-05
0.00257441
-0.000296236
1.04795e-05
0.00238874
-0.000162381
1.01064e-05
0.00213484
-3.30223e-05
9.42492e-06
0.00183725
7.19673e-05
8.45765e-06
0.00153584
0.000122957
7.29017e-06
0.00125713
0.000137075
6.08216e-06
0.00101601
0.00012913
4.89299e-06
0.000822391
0.000107311
3.80033e-06
0.000679753
8.01361e-05
2.77717e-06
0.00058533
5.42379e-05
1.87594e-06
0.000531856
3.07861e-05
1.06721e-06
1.04089e-05
3.63772e-07
0.00241003
-6.04901e-05
1.28457e-06
0.00239454
-0.000183002
3.61808e-06
0.00245961
-0.000285828
5.44316e-06
0.00253678
-0.000395609
7.12442e-06
0.0026227
-0.000514889
8.58939e-06
0.00270463
-0.000613174
9.64008e-06
0.00275708
-0.000648975
1.02272e-05
0.00277908
-0.000631499
1.04683e-05
0.00271648
-0.000486449
1.04728e-05
0.00252385
-0.000233304
1.01561e-05
0.00224486
-1.58653e-05
9.49029e-06
0.00190056
0.00016703
8.5243e-06
0.00156096
0.0002357
7.25098e-06
0.00125777
0.000241247
5.94481e-06
0.0010005
0.000218295
4.76304e-06
0.000799794
0.000174067
3.66972e-06
0.000656042
0.000125286
2.65858e-06
0.000562746
8.27303e-05
1.78912e-06
0.000510596
4.62198e-05
1.01577e-06
1.55044e-05
3.45876e-07
0.00231969
-8.08892e-05
1.32704e-06
0.00230354
-0.000243462
3.75509e-06
0.00236994
-0.000382547
5.67782e-06
0.0024583
-0.000542414
7.40759e-06
0.00257672
-0.000730891
8.89486e-06
0.00271873
-0.000898747
9.90872e-06
0.00282613
-0.000940698
1.02495e-05
0.00294201
-0.000239383
1.03834e-05
-0.000244579
-0.000239593
-0.000244795
0.00297117
-0.000213248
1.03828e-05
-0.000169223
-0.000213646
-0.000169258
0.00274254
-8.71474e-05
1.01673e-05
-4.48029e-05
-8.71651e-05
-4.45623e-05
0.00242525
-1.07464e-05
9.52727e-06
3.2768e-05
-1.07158e-05
3.29897e-05
0.00198598
7.68289e-05
8.56455e-06
0.000103342
7.69904e-05
0.000103596
0.00158507
0.00010989
7.1123e-06
9.83474e-05
0.000110075
9.85985e-05
0.0012482
0.000386662
5.65954e-06
0.000968127
0.000335489
4.52237e-06
0.000759778
0.000253161
3.46422e-06
0.00061743
0.000173097
2.47407e-06
0.000527737
0.000110723
1.65795e-06
0.000478616
6.05499e-05
9.39075e-07
2.01158e-05
3.19889e-07
0.00219997
-9.81631e-05
1.3681e-06
0.00217659
-0.000294484
3.92739e-06
0.00223513
-0.000467979
5.98255e-06
0.00232509
-0.000685302
7.77513e-06
0.00247768
-0.000973792
9.3708e-06
0.00275441
-0.00131093
1.03868e-05
0.000727176
-0.000356497
1.05427e-05
-0.000311085
-0.000356696
-0.000311093
0.000760448
0.000727703
0.000760594
-1.34058e-06
0.000753713
-0.000290469
2.06327e-06
-2.60769e-06
0.000829561
-0.000282612
2.96599e-06
-0.000789053
-1.87601e-06
-0.000841361
0.00080539
-8.23129e-05
2.20839e-06
-1.4113e-06
-0.000747892
0.000703795
2.44329e-06
1.82869e-06
-9.72439e-07
-0.000657935
0.000589842
0.000114272
1.51726e-06
-0.000500061
-1.04574e-06
0.000431131
0.00015177
1.36723e-06
0.00120611
0.000123341
5.11784e-06
0.0001316
0.00012333
0.000131761
-0.000372031
-0.000383446
-0.000372219
-0.000383511
0.000899978
0.000485492
4.1405e-06
0.00069577
0.000334865
3.14005e-06
0.00056088
0.000219165
2.20494e-06
0.000479892
0.000134225
1.4834e-06
0.000436628
7.15766e-05
8.41407e-07
2.35114e-05
2.87501e-07
0.00205529
-0.000108043
1.40676e-06
0.0020118
-0.000322151
4.12282e-06
0.0020397
-0.000517824
6.29763e-06
0.00209352
-0.000784085
8.05166e-06
0.002266
-0.00122508
9.6046e-06
0.000687746
-0.000422403
1.03434e-05
0.000674858
0.00068797
0.000674199
-0.000524208
-0.000422602
-0.000523844
-1.19293e-06
0.000757188
-0.000444403
1.88925e-06
-1.05595e-06
-0.000784626
0.000959719
-0.000526703
2.60476e-06
0.000326057
-2.54623e-07
0.000556538
-0.000568572
8.50453e-07
-1.03554e-06
-0.000363941
0.000528647
1.14639e-06
-0.000186122
-7.45354e-07
-0.000367044
0.000328998
0.000140326
9.978e-07
0.00077154
0.000171688
3.73026e-06
-0.000267107
-0.000267934
-0.000267109
-0.000267663
0.000146918
0.000171518
0.000147044
0.000589602
0.000404198
2.72947e-06
0.000483071
0.000244875
1.93168e-06
0.000420168
0.000145022
1.29281e-06
0.000386827
7.57859e-05
7.3311e-07
2.46728e-05
2.52891e-07
0.00189654
-0.000105776
1.43591e-06
0.00181847
-0.000311019
4.33478e-06
0.00178487
-0.000499863
6.62005e-06
0.00172594
-0.000759576
8.05855e-06
0.00045115
-0.000281928
9.2908e-06
0.000388561
0.000451284
0.00038836
-0.000338373
-0.000282188
-0.000338697
-1.64678e-06
0.000479049
-0.000461112
1.85226e-06
2.72775e-07
0.000697072
-0.000707262
1.0503e-06
-7.50514e-07
-0.000273652
0.000164079
0.000261184
8.64619e-07
0.000445547
0.000101083
2.18391e-06
-0.00013923
-0.000114123
-0.000139217
-0.000114046
8.37818e-05
0.000101147
8.38969e-05
0.000390554
0.000229646
1.59385e-06
0.000354157
0.000135524
1.09242e-06
0.00033393
7.02791e-05
6.24327e-07
2.27792e-05
2.19056e-07
0.00174094
-8.73682e-05
1.45331e-06
0.00162117
-0.00025357
4.57318e-06
0.00152463
-0.00041205
7.08497e-06
0.000357924
-0.000658294
8.34735e-06
0.000341028
0.000358083
0.000341084
-7.78862e-07
0.000341021
-0.000270155
1.53523e-06
-4.79405e-07
0.000431086
0.000430711
-0.000542732
2.28732e-06
-0.000329224
4.5447e-06
9.45275e-09
-1.17552e-07
-6.73337e-06
7.18661e-06
-9.8673e-08
1.4822e-08
-1.6449e-07
-1.05509e-05
-9.62595e-08
-0.000143475
0.000136742
2.04508e-07
-9.31561e-05
-3.0932e-07
8.67665e-05
9.67289e-05
3.82945e-07
0.00030282
0.000183369
1.28625e-06
-8.07135e-05
-7.80146e-05
-8.07275e-05
-7.80013e-05
0.000291731
0.000106528
9.10069e-07
0.00028481
5.46862e-05
5.29002e-07
1.76543e-05
1.90694e-07
0.00161163
-5.09044e-05
1.45339e-06
0.00144543
-0.000145532
4.75951e-06
0.00126797
-0.000237209
7.494e-06
0.000262011
-0.000395055
8.85826e-06
0.000232302
0.000262029
0.000232253
1.06794e-07
0.000235834
-0.000212222
1.36748e-06
0.000234131
-1.57489e-06
0.000284748
-0.000286541
1.28327e-06
-4.24749e-08
1.43487e-07
1.06798e-05
-1.95527e-07
-1.64424e-07
-1.57979e-05
8.53016e-08
-1.45632e-07
-8.41256e-05
2.41315e-07
3.12301e-07
-1.34564e-07
-2.34108e-07
2.34434e-07
5.10912e-07
-2.02455e-07
-5.93954e-07
2.62897e-07
-1.2893e-07
-8.40973e-05
3.08001e-07
2.3928e-07
-2.41052e-07
-1.48782e-07
5.43372e-07
-1.60363e-07
-5.52226e-07
1.11594e-07
9.97605e-06
1.77765e-07
-2.50317e-07
-1.47852e-05
4.67675e-06
-1.47928e-08
-7.09506e-06
3.91723e-08
-3.25313e-07
-8.09171e-05
5.63396e-05
9.72795e-05
3.80326e-07
-8.35319e-05
0.000230474
0.000105447
1.10129e-06
-5.54803e-05
-4.77904e-05
-5.54686e-05
-4.77633e-05
0.000242049
5.95112e-05
7.92683e-07
0.000246634
3.01479e-05
4.65072e-07
9.69001e-06
1.72468e-07
0.00153639
2.27532e-09
1.45008e-06
0.00133527
5.05332e-09
4.86136e-06
0.00109926
4.6598e-09
7.69659e-06
0.000178221
3.72187e-09
8.95577e-06
0.000169061
0.00017816
0.00016896
-1.76524e-07
0.000144711
0.000107571
-7.68983e-05
1.49225e-06
4.55157e-06
-1.0234e-07
-7.41847e-09
-6.7388e-06
-6.86085e-08
-1.87408e-08
-8.43259e-05
2.34025e-07
3.05363e-07
-1.48237e-07
-2.44526e-07
2.4369e-07
5.18184e-07
-1.85524e-07
-5.68825e-07
1.0546e-07
3.48196e-09
-8.48806e-05
2.38878e-07
1.64407e-08
-8.48054e-05
2.54026e-07
3.59085e-08
-8.41473e-05
3.19351e-07
-1.17861e-07
-2.26152e-07
5.1282e-07
2.45508e-07
-5.80737e-07
-1.98124e-07
1.21104e-05
-5.7554e-08
1.13859e-07
7.09977e-08
-1.81325e-05
-1.6646e-07
-5.23694e-05
2.1999e-05
2.3614e-05
2.11915e-07
0.000187126
-7.65922e-10
9.81397e-07
-3.36685e-05
-3.15564e-05
-3.36427e-05
-3.15311e-05
0.000213984
-3.2363e-10
7.29591e-07
0.000225639
5.28923e-11
4.33272e-07
1.52855e-10
1.6457e-07
0.00153639
5.09076e-05
1.4501e-06
0.00133527
0.000145541
4.86118e-06
0.00109927
0.000237217
7.6966e-06
0.000169076
0.000395063
8.95611e-06
0.000178206
0.000168975
0.000178145
-4.01928e-07
3.10822e-09
8.97734e-05
7.69041e-05
1.59052e-06
7.13092e-06
8.96681e-08
-1.65436e-07
-2.44374e-10
-1.06667e-05
-6.8845e-08
2.4862e-07
-8.40781e-05
3.01713e-07
2.34476e-07
-2.48945e-07
-1.52873e-07
5.24486e-07
-1.79385e-07
-5.69073e-07
1.11784e-07
1.498e-07
-8.46428e-05
2.37556e-07
1.38059e-07
-8.45445e-05
3.24401e-07
5.2244e-07
-8.38755e-05
2.49073e-07
-2.2119e-07
-1.23824e-07
2.43392e-07
-5.8041e-07
-1.98339e-07
9.82994e-06
-4.51159e-09
1.73827e-07
-6.36433e-08
-1.45764e-05
-1.55517e-07
8.63541e-10
1.74737e-05
-2.36158e-05
1.9311e-07
0.000187126
-0.000105447
9.81067e-07
-3.15417e-05
-3.36841e-05
-3.15164e-05
-3.36576e-05
0.000213983
-5.95111e-05
7.29444e-07
0.000225639
-3.01478e-05
4.33194e-07
-9.68986e-06
1.64573e-07
0.00161163
8.73684e-05
1.45346e-06
0.00144544
0.000253571
4.75936e-06
0.00126799
0.00041205
7.49418e-06
0.000232314
0.000658294
8.85912e-06
0.000262009
0.000232268
0.000262027
-1.15046e-07
-0.000144706
0.00016128
0.000212225
1.49592e-06
9.40631e-08
9.9855e-06
-2.40078e-07
1.86356e-07
-1.4807e-05
1.04183e-07
2.49365e-07
-8.42456e-05
3.10294e-07
-1.26546e-07
-2.38188e-07
4.99959e-07
2.32926e-07
-5.91941e-07
-2.07856e-07
5.3417e-07
3.14624e-07
-8.4089e-05
2.31657e-07
-2.35124e-07
-1.5358e-07
2.62331e-07
-5.41064e-07
-1.58146e-07
1.0251e-05
2.64372e-07
2.52073e-07
-1.48134e-05
9.09691e-06
5.86194e-08
1.24284e-09
-1.36767e-05
-1.08695e-07
-2.28712e-07
5.23742e-05
3.66142e-05
-9.72811e-05
2.67077e-07
0.000230471
-0.000183375
1.10114e-06
-4.7779e-05
-5.54862e-05
-4.77525e-05
-5.54739e-05
0.000242049
-0.000106531
7.92621e-07
0.000246633
-5.46846e-05
4.64938e-07
-1.76544e-05
1.72112e-07
0.00174094
0.000105774
1.45365e-06
0.00162117
0.000311015
4.57393e-06
0.00152464
0.000499859
7.08618e-06
0.000341033
0.000759574
8.34935e-06
0.000357923
0.00034109
0.000358084
-0.000234129
8.86407e-08
0.000299999
0.000270155
1.37028e-06
-1.91962e-06
-0.000284748
0.000542735
2.16845e-06
-0.000262901
4.753e-06
3.55381e-09
-7.10623e-06
-5.91144e-08
1.21464e-05
-6.917e-08
8.63565e-08
1.17389e-07
-1.81881e-05
9.81087e-06
-2.20509e-08
-4.41024e-08
1.66413e-07
-1.45462e-05
9.07116e-06
3.74493e-08
1.53737e-08
-1.36402e-05
-9.85609e-08
8.35314e-05
-6.9947e-05
-2.48894e-07
7.34744e-05
-9.67256e-05
3.21184e-07
0.000302821
-0.000229641
1.2862e-06
-7.80093e-05
-8.07245e-05
-7.79967e-05
-8.07379e-05
0.00029173
-0.000135523
9.10489e-07
0.00028481
-7.0279e-05
5.28752e-07
-2.27793e-05
1.90738e-07
0.00189655
0.00010804
1.43643e-06
0.00181848
0.000322143
4.3361e-06
0.00178488
0.000517816
6.62187e-06
0.00172595
0.000784078
8.06056e-06
0.000388554
0.00122507
9.29099e-06
0.000451164
0.000388355
0.000451301
-0.000281918
-0.000338392
-0.000282174
-0.000338711
8.55808e-07
-0.000431086
0.000347928
0.000461102
1.24382e-06
-2.21e-07
0.000143476
0.000105421
-0.000261188
3.91222e-07
0.000445545
-0.000404192
2.18403e-06
-0.000114132
-0.000139232
-0.000114054
-0.000139216
0.000101069
8.38043e-05
0.000101131
8.39174e-05
0.000390555
-0.000244871
1.59406e-06
0.000354155
-0.000145018
1.09235e-06
0.000333931
-7.5788e-05
6.24626e-07
-2.4673e-05
2.19119e-07
0.00205529
9.816e-05
1.40734e-06
0.0020118
0.000294476
4.12434e-06
0.0020397
0.000467972
6.29978e-06
0.00209352
0.000685299
8.05428e-06
0.00226597
0.000973816
9.60921e-06
0.000674828
0.00131093
1.03465e-05
-0.000422408
-0.000524208
-0.000422604
-0.000523844
0.000687764
0.000674171
0.000687988
2.72058e-06
-0.000697081
0.00090459
0.000444383
1.22066e-06
-1.32738e-06
-0.000535708
0.000526706
1.28779e-06
-7.60465e-07
-0.00028279
0.00040582
-0.000140332
8.58088e-07
0.00077153
-0.0004855
3.73181e-06
0.0001717
0.000146926
0.000171532
0.000147048
-0.000267949
-0.000267106
-0.000267677
-0.000267106
0.000589598
-0.000334865
2.73036e-06
0.000483071
-0.000219165
1.93191e-06
0.000420172
-0.000134225
1.29301e-06
0.000386829
-7.15765e-05
7.33264e-07
-2.35116e-05
2.52934e-07
0.00219997
8.08873e-05
1.36861e-06
0.00217659
0.000243457
3.92877e-06
0.00223513
0.000382543
5.98448e-06
0.00232508
0.000542413
7.77752e-06
0.00247769
0.000730895
9.37339e-06
0.00275443
0.000898745
1.0392e-05
0.00076044
0.000940689
1.05475e-05
-0.000356493
-0.000311064
-0.000356693
-0.000311073
0.00072717
0.000760586
0.000727697
-0.000326064
8.56759e-07
0.000771581
0.000290475
1.4617e-06
-1.80336e-06
-0.000556537
0.00105555
0.00028261
2.69169e-06
-0.000814196
-1.30739e-06
-0.000814469
0.000705839
8.22987e-05
1.74999e-06
-1.0163e-06
-0.000661638
0.000638278
-2.4494e-06
1.47079e-06
-1.03736e-06
-0.000658692
0.00074341
-0.000114281
1.51967e-06
0.000186127
-0.000495953
-7.18798e-07
0.000435739
-0.000151773
1.18002e-06
0.00120611
-0.000386674
5.11697e-06
0.000123343
0.0001316
0.000123333
0.000131761
-0.000383455
-0.000372017
-0.000383521
-0.000372211
0.000899982
-0.000335495
4.1425e-06
0.000695771
-0.000253158
3.14085e-06
0.000560882
-0.000173097
2.20531e-06
0.000479891
-0.000110719
1.48361e-06
0.00043663
-6.05527e-05
8.41511e-07
-2.01159e-05
2.87523e-07
0.00231969
6.04893e-05
1.32741e-06
0.00230353
0.000183
3.75616e-06
0.00236993
0.000285826
5.67937e-06
0.0024583
0.000395608
7.40954e-06
0.00257672
0.00051489
8.89748e-06
0.00271873
0.000613171
9.91224e-06
0.00282614
0.000648967
1.02547e-05
0.00294201
0.000631491
1.03898e-05
-0.000239383
-0.000244575
-0.000239597
-0.000244785
0.0029712
0.000486466
1.03903e-05
-0.000213248
-0.00016924
-0.000213661
-0.000169269
0.00274256
0.000233308
1.01755e-05
-8.71215e-05
-4.48218e-05
-8.71461e-05
-4.45868e-05
0.00242524
1.5884e-05
9.53244e-06
-1.07376e-05
3.2764e-05
-1.07042e-05
3.29736e-05
0.00198597