/*--------------------------------*- C++ -*----------------------------------*\
  =========                 |
  \\      /  F ield         | OpenFOAM: The Open Source CFD Toolbox
   \\    /   O peration     | Website:  https://openfoam.org
    \\  /    A nd           | Version:  11
     \\/     M anipulation  |
\*---------------------------------------------------------------------------*/
FoamFile
{
    format      ascii;
    class       volScalarField;
    location    "0.0003";
    object      rho;
}
// * * * * * * * * * * * * * * * * * * * * * * * * * * * * * * * * * * * * * //

dimensions      [1 -3 0 0 0 0 0];

internalField   nonuniform List<scalar> 
21740
(
1.41533
1.37217
1.37408
1.37857
1.37892
1.378
1.37457
1.36788
1.35821
1.34615
1.33247
1.31795
1.30323
1.28871
1.27462
1.26102
1.24784
1.23508
1.22289
1.21171
1.41543
1.37266
1.37472
1.37927
1.37966
1.37876
1.37526
1.36844
1.35853
1.34618
1.3322
1.31743
1.30253
1.28795
1.27389
1.26038
1.24733
1.23472
1.22267
1.21163
1.41564
1.37363
1.37596
1.38064
1.38117
1.38028
1.37663
1.36955
1.35916
1.34617
1.33155
1.31625
1.30101
1.28631
1.27235
1.25906
1.24629
1.23397
1.22223
1.21149
1.41593
1.37505
1.37775
1.38265
1.38337
1.38252
1.37863
1.37117
1.36022
1.34606
1.33028
1.31411
1.29836
1.28352
1.26984
1.25695
1.24467
1.23284
1.22156
1.21127
1.41627
1.37684
1.38001
1.38521
1.38618
1.3854
1.38118
1.37258
1.36334
1.35036
1.33327
1.31576
1.2989
1.27914
1.26605
1.25393
1.24245
1.23132
1.22068
1.21099
1.4166
1.37888
1.38258
1.38819
1.3895
1.38874
1.38238
1.37467
1.36008
1.29276
1.27783
1.26072
1.24992
1.23958
1.22945
1.21962
1.21066
1.41685
1.38097
1.38523
1.39132
1.39328
1.39083
1.3841
1.25769
1.24488
1.23625
1.22738
1.21848
1.2103
1.41698
1.38287
1.38766
1.3943
1.39427
1.39606
1.18919
1.18919
1.24879
1.2424
1.23294
1.22538
1.21741
1.20997
1.41701
1.38432
1.38953
1.39678
1.39773
1.39882
1.18919
1.18922
1.18922
1.18919
1.18919
1.23693
1.23027
1.22379
1.21657
1.20972
1.41701
1.3851
1.39048
1.39798
1.40001
1.18919
1.18922
1.18922
1.18922
1.18922
1.18919
1.23298
1.22867
1.22289
1.2161
1.20957
1.41701
1.3851
1.39048
1.39798
1.40036
1.18919
1.18922
1.18922
1.18922
1.18922
1.18919
1.23206
1.22867
1.22289
1.2161
1.20957
1.41701
1.38432
1.38953
1.39678
1.39922
1.18919
1.18922
1.18922
1.18919
1.18919
1.23466
1.23027
1.22379
1.21657
1.20971
1.41698
1.38287
1.38766
1.3943
1.39608
1.39703
1.18919
1.18919
1.18919
1.18919
1.23953
1.23294
1.22538
1.21741
1.20997
1.41685
1.38097
1.38523
1.39132
1.39328
1.39363
1.25306
1.24488
1.23625
1.22738
1.21848
1.2103
1.4166
1.37888
1.38258
1.38819
1.3895
1.38874
1.3836
1.37364
1.27348
1.26072
1.24992
1.23958
1.22945
1.21962
1.21066
1.41627
1.37684
1.38001
1.38521
1.38617
1.3854
1.38117
1.37292
1.36218
1.3482
1.331
1.31335
1.29638
1.27914
1.26605
1.25393
1.24245
1.23132
1.22068
1.21099
1.41593
1.37505
1.37775
1.38265
1.38337
1.38252
1.37863
1.37117
1.36022
1.34606
1.33028
1.31411
1.29836
1.28352
1.26983
1.25695
1.24467
1.23284
1.22156
1.21127
1.41564
1.37363
1.37596
1.38064
1.38117
1.38028
1.37663
1.36955
1.35916
1.34617
1.33155
1.31625
1.30101
1.28631
1.27235
1.25906
1.24629
1.23397
1.22223
1.21149
1.41543
1.37266
1.37472
1.37927
1.37966
1.37875
1.37526
1.36844
1.35853
1.34618
1.3322
1.31743
1.30253
1.28795
1.27389
1.26038
1.24733
1.23472
1.22267
1.21163
1.41533
1.37217
1.37408
1.37857
1.37892
1.378
1.37457
1.36788
1.35821
1.34615
1.33247
1.31795
1.30323
1.28871
1.27462
1.26102
1.24784
1.23508
1.22289
1.21171
1.41532
1.37216
1.37407
1.37855
1.37889
1.37797
1.37454
1.36786
1.35818
1.34612
1.33245
1.31793
1.3032
1.28869
1.2746
1.261
1.24783
1.23508
1.22289
1.2117
1.41543
1.37265
1.3747
1.37924
1.37964
1.37873
1.37523
1.36841
1.35851
1.34615
1.33217
1.3174
1.30251
1.28793
1.27388
1.26037
1.24732
1.23471
1.22267
1.21163
1.41564
1.37362
1.37594
1.38062
1.38114
1.38025
1.37661
1.36952
1.35913
1.34615
1.33153
1.31623
1.30099
1.2863
1.27234
1.25904
1.24628
1.23396
1.22222
1.21149
1.41593
1.37504
1.37774
1.38263
1.38335
1.3825
1.37861
1.37114
1.36018
1.34603
1.33025
1.31409
1.29834
1.28351
1.26982
1.25694
1.24466
1.23283
1.22155
1.21127
1.41627
1.37683
1.37999
1.38518
1.38615
1.38537
1.38115
1.37379
1.3637
1.35038
1.33325
1.31576
1.29892
1.27913
1.26605
1.25393
1.24244
1.23132
1.22067
1.21099
1.4166
1.37887
1.38256
1.38817
1.38948
1.38871
1.38346
1.37493
1.36012
1.29273
1.27784
1.26073
1.24992
1.23958
1.22945
1.21962
1.21066
1.41685
1.38096
1.38521
1.3913
1.39327
1.39156
1.38397
1.25768
1.24489
1.23625
1.22738
1.21848
1.2103
1.41698
1.38285
1.38764
1.39432
1.3948
1.39608
1.18939
1.18939
1.24879
1.24241
1.23295
1.22538
1.21741
1.20997
1.41701
1.3843
1.38951
1.3968
1.39799
1.39898
1.18939
1.18948
1.18948
1.18939
1.18939
1.23695
1.23028
1.22379
1.21656
1.20971
1.41701
1.38509
1.39047
1.398
1.40016
1.18939
1.18948
1.18949
1.18948
1.18948
1.18939
1.23298
1.22869
1.22289
1.21609
1.20957
1.41701
1.38509
1.39047
1.398
1.40051
1.18939
1.18948
1.18949
1.18948
1.18948
1.18939
1.23206
1.22869
1.22289
1.21609
1.20957
1.41701
1.3843
1.38951
1.3968
1.39944
1.18939
1.18948
1.18948
1.18939
1.18939
1.23467
1.23028
1.22379
1.21656
1.20971
1.41698
1.38285
1.38764
1.39432
1.39646
1.39714
1.18939
1.18939
1.18939
1.18939
1.23955
1.23295
1.22538
1.21741
1.20997
1.41685
1.38096
1.38521
1.3913
1.39327
1.39398
1.25305
1.24489
1.23625
1.22738
1.21848
1.2103
1.4166
1.37887
1.38256
1.38817
1.38948
1.38871
1.38406
1.37392
1.27347
1.26073
1.24992
1.23958
1.22945
1.21962
1.21066
1.41627
1.37683
1.37999
1.38518
1.38615
1.38537
1.38115
1.37382
1.3624
1.3482
1.33097
1.31328
1.29639
1.27913
1.26605
1.25393
1.24244
1.23132
1.22067
1.21099
1.41593
1.37504
1.37774
1.38263
1.38335
1.3825
1.37861
1.37114
1.36018
1.34603
1.33025
1.31409
1.29834
1.28351
1.26982
1.25694
1.24466
1.23283
1.22155
1.21127
1.41564
1.37362
1.37594
1.38062
1.38114
1.38025
1.37661
1.36952
1.35913
1.34615
1.33153
1.31623
1.30099
1.2863
1.27234
1.25904
1.24628
1.23396
1.22222
1.21149
1.41543
1.37265
1.3747
1.37924
1.37964
1.37873
1.37523
1.36841
1.35851
1.34615
1.33217
1.3174
1.30251
1.28793
1.27388
1.26037
1.24732
1.23471
1.22267
1.21163
1.41532
1.37216
1.37407
1.37855
1.37889
1.37797
1.37454
1.36786
1.35818
1.34612
1.33245
1.31793
1.3032
1.28869
1.2746
1.261
1.24783
1.23508
1.22289
1.2117
1.41531
1.37213
1.37403
1.3785
1.37883
1.37791
1.37447
1.36779
1.35812
1.34606
1.33239
1.31787
1.30316
1.28865
1.27457
1.26098
1.24781
1.23506
1.22288
1.2117
1.41542
1.37262
1.37466
1.37919
1.37958
1.37866
1.37516
1.36834
1.35844
1.34609
1.33212
1.31735
1.30247
1.2879
1.27385
1.26034
1.2473
1.2347
1.22266
1.21163
1.41563
1.37359
1.3759
1.38057
1.38108
1.38019
1.37654
1.36945
1.35907
1.34608
1.33147
1.31618
1.30095
1.28626
1.27231
1.25902
1.24626
1.23395
1.22221
1.21148
1.41592
1.37501
1.37769
1.38258
1.38329
1.38243
1.37854
1.37108
1.36012
1.34596
1.33019
1.31404
1.2983
1.28348
1.2698
1.25692
1.24465
1.23282
1.22154
1.21127
1.41626
1.3768
1.37995
1.38513
1.3861
1.38531
1.38109
1.37372
1.36362
1.35031
1.33319
1.31571
1.29889
1.2791
1.26603
1.25391
1.24243
1.23131
1.22066
1.21099
1.41659
1.37884
1.38252
1.38812
1.38942
1.38866
1.3834
1.37488
1.36005
1.29269
1.27782
1.26071
1.24991
1.23957
1.22944
1.21961
1.21065
1.41684
1.38092
1.38517
1.39126
1.39322
1.39151
1.38395
1.25767
1.24488
1.23624
1.22737
1.21848
1.2103
1.41697
1.38282
1.3876
1.39428
1.39476
1.39604
1.18986
1.18986
1.24877
1.24241
1.23295
1.22538
1.21741
1.20997
1.41699
1.38427
1.38947
1.39676
1.39796
1.39891
1.18986
1.19002
1.19002
1.18986
1.18986
1.23695
1.23028
1.22379
1.21656
1.20971
1.41699
1.38505
1.39043
1.39796
1.40013
1.18986
1.19002
1.19002
1.19002
1.19002
1.18986
1.23297
1.22869
1.22289
1.21609
1.20957
1.41699
1.38505
1.39043
1.39796
1.40047
1.18986
1.19002
1.19002
1.19002
1.19002
1.18986
1.23206
1.22869
1.22289
1.21609
1.20957
1.41699
1.38427
1.38947
1.39676
1.39941
1.18986
1.19002
1.19002
1.18986
1.18986
1.23466
1.23028
1.22379
1.21656
1.20971
1.41697
1.38282
1.3876
1.39428
1.39644
1.39709
1.18986
1.18986
1.18986
1.18986
1.23954
1.23295
1.22538
1.21741
1.20997
1.41684
1.38092
1.38517
1.39126
1.39322
1.39395
1.25303
1.24488
1.23624
1.22737
1.21848
1.2103
1.41659
1.37884
1.38252
1.38812
1.38942
1.38866
1.38404
1.37384
1.27345
1.26071
1.24991
1.23957
1.22944
1.21961
1.21065
1.41626
1.3768
1.37995
1.38513
1.3861
1.38531
1.38109
1.37378
1.36234
1.34814
1.33092
1.31323
1.29635
1.2791
1.26603
1.25391
1.24243
1.23131
1.22066
1.21099
1.41592
1.37501
1.37769
1.38258
1.38329
1.38243
1.37854
1.37107
1.36012
1.34596
1.33019
1.31403
1.2983
1.28347
1.2698
1.25692
1.24465
1.23282
1.22154
1.21127
1.41563
1.37359
1.3759
1.38057
1.38108
1.38019
1.37654
1.36945
1.35907
1.34608
1.33147
1.31618
1.30094
1.28626
1.27231
1.25902
1.24626
1.23395
1.22221
1.21148
1.41542
1.37262
1.37466
1.37919
1.37958
1.37866
1.37516
1.36834
1.35844
1.34609
1.33212
1.31735
1.30247
1.2879
1.27385
1.26034
1.2473
1.2347
1.22266
1.21163
1.41531
1.37213
1.37403
1.3785
1.37883
1.37791
1.37447
1.36779
1.35812
1.34606
1.33239
1.31787
1.30316
1.28865
1.27457
1.26098
1.24781
1.23506
1.22288
1.2117
1.4153
1.37209
1.37397
1.37843
1.37875
1.37781
1.37437
1.36769
1.35802
1.34596
1.3323
1.3178
1.30309
1.28859
1.27453
1.26094
1.24778
1.23504
1.22287
1.2117
1.4154
1.37257
1.3746
1.37912
1.37949
1.37857
1.37506
1.36824
1.35834
1.34599
1.33203
1.31727
1.3024
1.28784
1.2738
1.26031
1.24728
1.23468
1.22265
1.21163
1.41561
1.37354
1.37584
1.38049
1.38099
1.38009
1.37644
1.36935
1.35896
1.34598
1.33138
1.3161
1.30088
1.28621
1.27227
1.25899
1.24624
1.23393
1.2222
1.21148
1.41591
1.37496
1.37763
1.3825
1.3832
1.38234
1.37844
1.37097
1.36001
1.34587
1.3301
1.31396
1.29824
1.28343
1.26976
1.25689
1.24463
1.23281
1.22154
1.21126
1.41624
1.37675
1.37988
1.38506
1.38601
1.38522
1.38098
1.37362
1.36351
1.35022
1.33311
1.31564
1.29883
1.27906
1.26599
1.25389
1.24241
1.23129
1.22066
1.21098
1.41657
1.37879
1.38246
1.38804
1.38934
1.38857
1.38331
1.37477
1.35995
1.29263
1.27777
1.26068
1.24989
1.23956
1.22943
1.21961
1.21065
1.41682
1.38087
1.38511
1.39118
1.39313
1.39142
1.38387
1.25764
1.24486
1.23623
1.22737
1.21847
1.2103
1.41694
1.38277
1.38754
1.39421
1.39469
1.39596
1.1906
1.1906
1.24875
1.24239
1.23294
1.22538
1.2174
1.20997
1.41696
1.38421
1.38941
1.39669
1.39789
1.39883
1.1906
1.19083
1.19083
1.1906
1.19059
1.23693
1.23028
1.22379
1.21656
1.20971
1.41696
1.385
1.39038
1.39789
1.40006
1.1906
1.19083
1.19084
1.19084
1.19083
1.19059
1.23296
1.22868
1.22289
1.2161
1.20957
1.41696
1.385
1.39038
1.39789
1.4004
1.1906
1.19083
1.19084
1.19084
1.19083
1.1906
1.23205
1.22868
1.22289
1.2161
1.20957
1.41696
1.38421
1.38941
1.39669
1.39934
1.1906
1.19083
1.19083
1.1906
1.19059
1.23465
1.23028
1.22379
1.21656
1.20971
1.41694
1.38277
1.38754
1.39421
1.39636
1.397
1.1906
1.1906
1.1906
1.19059
1.23953
1.23294
1.22538
1.2174
1.20997
1.41682
1.38087
1.38511
1.39118
1.39313
1.39387
1.25301
1.24486
1.23623
1.22737
1.21847
1.2103
1.41657
1.37879
1.38246
1.38804
1.38934
1.38857
1.38395
1.37374
1.27341
1.26068
1.24989
1.23956
1.22943
1.21961
1.21065
1.41624
1.37675
1.37988
1.38506
1.38601
1.38521
1.38098
1.37368
1.36223
1.34805
1.33084
1.31316
1.29629
1.27906
1.26599
1.25389
1.24241
1.23129
1.22066
1.21098
1.41591
1.37496
1.37763
1.3825
1.3832
1.38234
1.37844
1.37097
1.36001
1.34587
1.3301
1.31396
1.29824
1.28342
1.26976
1.25689
1.24463
1.23281
1.22154
1.21126
1.41561
1.37354
1.37584
1.38049
1.38099
1.38009
1.37644
1.36935
1.35896
1.34598
1.33138
1.3161
1.30088
1.28621
1.27227
1.25899
1.24624
1.23393
1.2222
1.21148
1.4154
1.37257
1.3746
1.37912
1.37949
1.37857
1.37506
1.36824
1.35834
1.34599
1.33203
1.31727
1.3024
1.28784
1.2738
1.26031
1.24728
1.23468
1.22265
1.21163
1.4153
1.37209
1.37397
1.37843
1.37875
1.37781
1.37437
1.36769
1.35802
1.34596
1.3323
1.3178
1.30309
1.28859
1.27453
1.26094
1.24778
1.23504
1.22287
1.2117
1.41528
1.37202
1.37388
1.37832
1.37862
1.37768
1.37423
1.36755
1.35788
1.34583
1.33218
1.31769
1.303
1.28852
1.27446
1.26089
1.24775
1.23502
1.22286
1.21169
1.41538
1.37251
1.37452
1.37901
1.37937
1.37844
1.37492
1.3681
1.3582
1.34586
1.33191
1.31717
1.30231
1.28777
1.27374
1.26026
1.24724
1.23465
1.22263
1.21162
1.41559
1.37348
1.37575
1.38039
1.38087
1.37996
1.3763
1.36921
1.35883
1.34585
1.33126
1.31599
1.30079
1.28614
1.27221
1.25895
1.2462
1.23391
1.22219
1.21148
1.41588
1.3749
1.37754
1.3824
1.38308
1.38221
1.3783
1.37083
1.35988
1.34573
1.32997
1.31385
1.29815
1.28336
1.26972
1.25686
1.2446
1.23279
1.22152
1.21126
1.41622
1.37668
1.37979
1.38495
1.38589
1.38508
1.38083
1.37348
1.36337
1.35008
1.33299
1.31554
1.29875
1.27901
1.26596
1.25387
1.2424
1.23128
1.22065
1.21098
1.41653
1.37871
1.38237
1.38794
1.38922
1.38844
1.38318
1.37463
1.3598
1.29256
1.27771
1.26065
1.24988
1.23955
1.22943
1.2196
1.21065
1.41678
1.3808
1.38502
1.39109
1.39302
1.39131
1.38374
1.2576
1.24485
1.23623
1.22737
1.21847
1.2103
1.41689
1.38269
1.38746
1.39411
1.39459
1.39585
1.19162
1.19161
1.24872
1.24237
1.23294
1.22539
1.21741
1.20997
1.41689
1.38413
1.38934
1.3966
1.39779
1.39872
1.19162
1.19193
1.19193
1.19162
1.19161
1.23692
1.23029
1.22381
1.21657
1.20972
1.41688
1.38492
1.39031
1.3978
1.39996
1.19162
1.19193
1.19196
1.19195
1.19193
1.19161
1.23295
1.2287
1.22291
1.2161
1.20957
1.41688
1.38492
1.39031
1.3978
1.40031
1.19162
1.19193
1.19196
1.19195
1.19193
1.19161
1.23203
1.2287
1.22291
1.2161
1.20957
1.41689
1.38413
1.38934
1.3966
1.39924
1.19163
1.19193
1.19193
1.19163
1.19161
1.23464
1.23029
1.22381
1.21657
1.20972
1.41689
1.38269
1.38746
1.39411
1.39626
1.39689
1.19162
1.19162
1.19162
1.19161
1.23951
1.23294
1.22539
1.21741
1.20997
1.41678
1.3808
1.38502
1.39109
1.39302
1.39376
1.25297
1.24485
1.23623
1.22737
1.21847
1.2103
1.41653
1.37871
1.38237
1.38794
1.38922
1.38844
1.38382
1.37359
1.27335
1.26065
1.24988
1.23955
1.22943
1.2196
1.21065
1.41622
1.37668
1.37979
1.38495
1.38589
1.38508
1.38083
1.37353
1.36208
1.34791
1.33072
1.31306
1.29621
1.27901
1.26596
1.25387
1.2424
1.23128
1.22065
1.21098
1.41588
1.3749
1.37754
1.3824
1.38308
1.38221
1.3783
1.37083
1.35988
1.34573
1.32997
1.31385
1.29815
1.28336
1.26972
1.25686
1.2446
1.23279
1.22152
1.21126
1.41559
1.37348
1.37575
1.38039
1.38087
1.37996
1.3763
1.36921
1.35883
1.34585
1.33126
1.31599
1.30079
1.28614
1.27221
1.25895
1.2462
1.23391
1.22219
1.21148
1.41538
1.37251
1.37452
1.37901
1.37937
1.37844
1.37492
1.3681
1.3582
1.34586
1.33191
1.31717
1.30231
1.28777
1.27374
1.26026
1.24724
1.23465
1.22263
1.21162
1.41528
1.37202
1.37388
1.37832
1.37862
1.37768
1.37423
1.36755
1.35788
1.34583
1.33218
1.31769
1.303
1.28852
1.27446
1.26089
1.24775
1.23502
1.22286
1.21169
1.41525
1.37195
1.37377
1.37819
1.37847
1.3775
1.37405
1.36737
1.3577
1.34567
1.33203
1.31756
1.30289
1.28842
1.27439
1.26083
1.2477
1.23499
1.22284
1.21169
1.41535
1.37243
1.37441
1.37888
1.37921
1.37826
1.37474
1.36792
1.35802
1.3457
1.33176
1.31704
1.3022
1.28768
1.27367
1.26021
1.2472
1.23462
1.22262
1.21161
1.41556
1.3734
1.37564
1.38025
1.38072
1.37979
1.37612
1.36903
1.35865
1.34568
1.3311
1.31586
1.30069
1.28606
1.27216
1.2589
1.24617
1.23389
1.22217
1.21147
1.41585
1.37481
1.37743
1.38226
1.38293
1.38205
1.37812
1.37064
1.35969
1.34554
1.3298
1.31371
1.29806
1.28331
1.26968
1.25683
1.24458
1.23277
1.22151
1.21126
1.41618
1.37659
1.37968
1.38483
1.38575
1.38492
1.38062
1.37329
1.36314
1.34985
1.3328
1.31542
1.29866
1.27898
1.26596
1.25386
1.24239
1.23127
1.22064
1.21098
1.41648
1.37862
1.38227
1.38783
1.3891
1.38829
1.38298
1.37443
1.35957
1.29245
1.27766
1.26065
1.2499
1.23956
1.22943
1.2196
1.21065
1.41671
1.3807
1.38493
1.391
1.3929
1.39118
1.38355
1.25755
1.24488
1.23626
1.22738
1.21848
1.2103
1.41681
1.38259
1.38738
1.39404
1.3945
1.3957
1.19291
1.19291
1.24869
1.24238
1.233
1.22542
1.21742
1.20997
1.41679
1.38403
1.38928
1.39655
1.39769
1.39857
1.19294
1.19334
1.19333
1.19293
1.19292
1.23691
1.23036
1.22386
1.21659
1.20972
1.41676
1.38481
1.39026
1.39777
1.39987
1.19292
1.19334
1.19339
1.19339
1.19333
1.19291
1.23293
1.22877
1.22297
1.21613
1.20958
1.41676
1.38481
1.39026
1.39777
1.40022
1.19292
1.19334
1.19339
1.19339
1.19333
1.19292
1.23202
1.22877
1.22297
1.21613
1.20958
1.41679
1.38403
1.38928
1.39655
1.39914
1.19294
1.19334
1.19333
1.19294
1.19291
1.23463
1.23036
1.22386
1.21659
1.20972
1.41681
1.38259
1.38738
1.39404
1.39616
1.39673
1.19293
1.19292
1.19292
1.19292
1.23952
1.233
1.22542
1.21742
1.20997
1.41671
1.3807
1.38493
1.391
1.3929
1.39364
1.25293
1.24488
1.23626
1.22738
1.21848
1.2103
1.41648
1.37862
1.38227
1.38783
1.3891
1.38829
1.38365
1.37337
1.27327
1.26065
1.2499
1.23956
1.22943
1.2196
1.21065
1.41618
1.37659
1.37968
1.38483
1.38575
1.38492
1.38062
1.37332
1.36187
1.34767
1.33055
1.31292
1.29613
1.27898
1.26596
1.25386
1.24239
1.23127
1.22064
1.21098
1.41585
1.37481
1.37743
1.38226
1.38293
1.38205
1.37812
1.37064
1.35969
1.34554
1.3298
1.3137
1.29806
1.28331
1.26968
1.25683
1.24458
1.23277
1.22151
1.21126
1.41556
1.3734
1.37564
1.38025
1.38072
1.37979
1.37612
1.36903
1.35865
1.34568
1.3311
1.31586
1.30069
1.28606
1.27216
1.2589
1.24617
1.23389
1.22217
1.21147
1.41535
1.37243
1.37441
1.37888
1.37921
1.37826
1.37474
1.36792
1.35802
1.3457
1.33176
1.31704
1.3022
1.28768
1.27367
1.26021
1.2472
1.23462
1.22262
1.21161
1.41525
1.37195
1.37377
1.37819
1.37847
1.3775
1.37405
1.36737
1.3577
1.34567
1.33203
1.31756
1.30289
1.28842
1.27439
1.26083
1.2477
1.23499
1.22284
1.21169
1.41522
1.37185
1.37363
1.37801
1.37827
1.37729
1.37383
1.36714
1.35748
1.34546
1.33185
1.3174
1.30275
1.28831
1.27429
1.26076
1.24765
1.23495
1.22281
1.21168
1.41532
1.37233
1.37427
1.3787
1.37902
1.37805
1.37452
1.36769
1.3578
1.34549
1.33157
1.31688
1.30207
1.28757
1.27359
1.26014
1.24715
1.23459
1.22259
1.21161
1.41552
1.3733
1.3755
1.38008
1.38052
1.37957
1.37589
1.36879
1.35842
1.34547
1.33091
1.3157
1.30057
1.28597
1.27209
1.25884
1.24612
1.23385
1.22215
1.21146
1.41581
1.3747
1.37729
1.3821
1.38274
1.38184
1.37788
1.37041
1.35945
1.34531
1.32958
1.31352
1.29796
1.28326
1.26965
1.2568
1.24455
1.23274
1.22149
1.21125
1.41613
1.37648
1.37955
1.38467
1.38556
1.38473
1.38032
1.37302
1.36273
1.34942
1.33247
1.31529
1.2986
1.27899
1.26599
1.25387
1.24238
1.23126
1.22063
1.21097
1.41643
1.3785
1.38214
1.3877
1.38894
1.38814
1.38257
1.37402
1.35903
1.29226
1.27771
1.26074
1.24996
1.23958
1.22943
1.21959
1.21065
1.41664
1.38058
1.38482
1.3909
1.39276
1.39108
1.38318
1.25749
1.24499
1.23631
1.2274
1.21848
1.2103
1.41671
1.38247
1.38729
1.394
1.39442
1.39548
1.19439
1.19441
1.24863
1.24248
1.2331
1.22546
1.21743
1.20998
1.41667
1.38391
1.38922
1.39656
1.39768
1.3983
1.1945
1.19508
1.19508
1.19454
1.19457
1.23701
1.2305
1.22392
1.21661
1.20973
1.41663
1.38469
1.39022
1.39783
1.39987
1.1944
1.19509
1.19519
1.19519
1.19507
1.19445
1.23294
1.22894
1.22304
1.21616
1.20959
1.41663
1.38469
1.39022
1.39783
1.40022
1.19442
1.19509
1.19519
1.19519
1.19507
1.19451
1.23201
1.22894
1.22304
1.21616
1.20959
1.41667
1.38391
1.38922
1.39656
1.39914
1.19456
1.19508
1.19508
1.19457
1.19442
1.23467
1.2305
1.22392
1.21661
1.20973
1.41671
1.38247
1.38729
1.394
1.39611
1.39651
1.19459
1.19446
1.19452
1.19443
1.23962
1.2331
1.22546
1.21743
1.20998
1.41664
1.38058
1.38482
1.3909
1.39276
1.39357
1.25282
1.24498
1.23631
1.2274
1.21848
1.2103
1.41643
1.3785
1.38214
1.3877
1.38894
1.38814
1.38325
1.3727
1.27324
1.26074
1.24996
1.23958
1.22943
1.21959
1.21065
1.41613
1.37648
1.37955
1.38467
1.38556
1.38473
1.38032
1.37293
1.36147
1.34714
1.33023
1.31254
1.29613
1.27899
1.26599
1.25387
1.24238
1.23126
1.22063
1.21097
1.41581
1.3747
1.37729
1.38209
1.38274
1.38183
1.37788
1.37041
1.35946
1.34531
1.32958
1.31352
1.29796
1.28326
1.26965
1.2568
1.24455
1.23274
1.22149
1.21125
1.41552
1.3733
1.3755
1.38008
1.38052
1.37957
1.37589
1.36879
1.35842
1.34547
1.33091
1.3157
1.30057
1.28597
1.27209
1.25884
1.24612
1.23385
1.22215
1.21146
1.41532
1.37233
1.37427
1.3787
1.37901
1.37805
1.37452
1.36769
1.3578
1.34549
1.33157
1.31688
1.30207
1.28757
1.27359
1.26014
1.24715
1.23459
1.22259
1.21161
1.41522
1.37185
1.37363
1.37801
1.37827
1.37729
1.37383
1.36714
1.35748
1.34546
1.33185
1.3174
1.30275
1.28831
1.27429
1.26076
1.24765
1.23495
1.22281
1.21168
1.41518
1.37172
1.37347
1.37781
1.37803
1.37702
1.37355
1.36686
1.35722
1.34522
1.33162
1.3172
1.30259
1.28817
1.27418
1.26067
1.24758
1.23491
1.22279
1.21167
1.41528
1.37221
1.3741
1.37849
1.37877
1.37778
1.37424
1.36741
1.35753
1.34524
1.33135
1.31669
1.30191
1.28744
1.27348
1.26006
1.24709
1.23454
1.22257
1.2116
1.41548
1.37317
1.37533
1.37986
1.38027
1.37931
1.37561
1.36851
1.35816
1.34522
1.33068
1.31551
1.30042
1.28585
1.27199
1.25877
1.24607
1.23381
1.22213
1.21146
1.41576
1.37457
1.37711
1.38188
1.38249
1.38156
1.3776
1.37012
1.35918
1.34505
1.32935
1.31332
1.29782
1.28315
1.26956
1.25673
1.2445
1.23271
1.22147
1.21124
1.41608
1.37634
1.37936
1.38445
1.38531
1.38446
1.38
1.3727
1.36233
1.34898
1.33213
1.3151
1.2985
1.27891
1.26593
1.25382
1.24234
1.23123
1.22061
1.21097
1.41637
1.37836
1.38196
1.38748
1.38869
1.38789
1.3821
1.37359
1.35849
1.1948
1.1948
1.19479
1.29205
1.27772
1.26072
1.24994
1.23956
1.22941
1.21958
1.21064
1.41658
1.38044
1.38464
1.39069
1.39252
1.39089
1.38273
1.19481
1.19492
1.19512
1.19517
1.19501
1.19482
1.19477
1.25743
1.24499
1.23631
1.22739
1.21847
1.2103
1.41665
1.38232
1.38712
1.39381
1.39424
1.39517
1.19481
1.19508
1.19566
1.19608
1.19616
1.19588
1.19533
1.19486
1.24858
1.24255
1.23312
1.22546
1.21743
1.20998
1.4166
1.38376
1.38905
1.3964
1.39755
1.39792
1.19492
1.19567
1.19707
1.19728
1.19728
1.19705
1.19609
1.1952
1.19479
1.23709
1.23054
1.22393
1.21662
1.20973
1.41656
1.38454
1.39006
1.39768
1.39976
1.19481
1.19513
1.19609
1.19729
1.19746
1.19745
1.19727
1.19637
1.19558
1.19484
1.23294
1.22899
1.22306
1.21616
1.20959
1.41656
1.38454
1.39006
1.39768
1.40011
1.19482
1.19518
1.19618
1.19729
1.19746
1.19745
1.19727
1.19642
1.19566
1.19486
1.232
1.22899
1.22306
1.21616
1.20959
1.4166
1.38376
1.38905
1.3964
1.39904
1.19481
1.19503
1.1959
1.19707
1.19728
1.19728
1.19705
1.19626
1.1954
1.1948
1.23471
1.23054
1.22393
1.21662
1.20973
1.41665
1.38232
1.38712
1.39381
1.39596
1.39621
1.19484
1.19535
1.19611
1.19638
1.19644
1.19626
1.19574
1.19501
1.19479
1.23968
1.23312
1.22546
1.21743
1.20998
1.41658
1.38044
1.38464
1.39069
1.39252
1.39341
1.1948
1.19488
1.19522
1.1956
1.19567
1.19541
1.19501
1.19478
1.2527
1.24499
1.23631
1.22739
1.21847
1.2103
1.41637
1.37836
1.38196
1.38748
1.38869
1.38789
1.38278
1.37199
1.19481
1.19485
1.19487
1.19481
1.1948
1.27319
1.26072
1.24994
1.23956
1.22941
1.21958
1.21064
1.41608
1.37634
1.37936
1.38445
1.38531
1.38446
1.38
1.37251
1.36105
1.34662
1.3299
1.31213
1.29607
1.27891
1.26593
1.25382
1.24234
1.23123
1.22061
1.21097
1.41576
1.37457
1.37711
1.38188
1.38249
1.38156
1.3776
1.37012
1.35918
1.34505
1.32935
1.31332
1.29782
1.28315
1.26956
1.25673
1.2445
1.23271
1.22147
1.21124
1.41548
1.37317
1.37533
1.37986
1.38027
1.37931
1.37561
1.36851
1.35816
1.34522
1.33069
1.31551
1.30042
1.28585
1.27199
1.25877
1.24607
1.23381
1.22213
1.21146
1.41528
1.37221
1.3741
1.37849
1.37877
1.37778
1.37424
1.36741
1.35754
1.34524
1.33135
1.31669
1.30191
1.28744
1.27348
1.26006
1.24709
1.23454
1.22257
1.2116
1.41518
1.37172
1.37347
1.37781
1.37803
1.37702
1.37355
1.36686
1.35722
1.34522
1.33162
1.3172
1.30259
1.28817
1.27418
1.26067
1.24758
1.23491
1.22279
1.21167
1.41513
1.37158
1.37326
1.37755
1.37773
1.37671
1.37322
1.36654
1.35691
1.34493
1.33136
1.31697
1.30239
1.28801
1.27405
1.26057
1.24751
1.23486
1.22276
1.21166
1.41523
1.37206
1.37389
1.37824
1.37847
1.37746
1.37391
1.36709
1.35722
1.34495
1.33109
1.31646
1.30171
1.28727
1.27335
1.25996
1.24701
1.2345
1.22254
1.21159
1.41543
1.37301
1.37512
1.3796
1.37997
1.37898
1.37528
1.36819
1.35784
1.34493
1.33043
1.31529
1.30022
1.28568
1.27185
1.25867
1.246
1.23377
1.2221
1.21145
1.41571
1.37441
1.37689
1.3816
1.38217
1.38122
1.37726
1.36979
1.35887
1.34478
1.32913
1.31313
1.29761
1.28296
1.26941
1.25663
1.24443
1.23266
1.22145
1.21124
1.41603
1.37618
1.37913
1.38416
1.38498
1.3841
1.37972
1.37241
1.36217
1.34889
1.332
1.31489
1.29828
1.27869
1.26575
1.2537
1.24227
1.23119
1.22059
1.21096
1.41634
1.3782
1.3817
1.38716
1.38833
1.38748
1.38194
1.37343
1.35846
1.29197
1.27748
1.26051
1.24979
1.23948
1.22937
1.21956
1.21064
1.41656
1.38026
1.38436
1.39033
1.39214
1.39048
1.38258
1.25735
1.24483
1.23622
1.22734
1.21845
1.21029
1.41664
1.38214
1.38682
1.39341
1.39386
1.39491
1.19866
1.19891
1.24854
1.24241
1.233
1.22541
1.21741
1.20997
1.41661
1.38358
1.38873
1.39594
1.39712
1.39776
1.19897
1.20012
1.20011
1.19913
1.19858
1.23697
1.2304
1.22387
1.21659
1.20972
1.41658
1.38436
1.38972
1.39719
1.39934
1.19867
1.20013
1.20027
1.20025
1.20009
1.19899
1.23291
1.22883
1.22299
1.21614
1.20958
1.41658
1.38436
1.38972
1.39719
1.39969
1.19893
1.20013
1.20027
1.20025
1.20009
1.19904
1.23199
1.22883
1.22299
1.21614
1.20958
1.41661
1.38358
1.38873
1.39594
1.3986
1.19916
1.20012
1.20011
1.19931
1.19895
1.23464
1.2304
1.22387
1.21659
1.20972
1.41664
1.38214
1.38682
1.39341
1.39556
1.39595
1.19861
1.19902
1.19906
1.19896
1.23956
1.233
1.22541
1.21741
1.20997
1.41656
1.38026
1.38437
1.39033
1.39214
1.39298
1.2527
1.24483
1.23622
1.22734
1.21845
1.21029
1.41634
1.3782
1.3817
1.38716
1.38833
1.38748
1.38263
1.37212
1.27303
1.26051
1.24979
1.23948
1.22937
1.21956
1.21064
1.41603
1.37618
1.37913
1.38416
1.38498
1.3841
1.37972
1.37232
1.3609
1.34662
1.32978
1.31216
1.29582
1.27869
1.26575
1.2537
1.24227
1.23119
1.22059
1.21096
1.41571
1.37441
1.37689
1.3816
1.38217
1.38122
1.37726
1.36979
1.35887
1.34478
1.32913
1.31313
1.29761
1.28296
1.26941
1.25663
1.24443
1.23266
1.22145
1.21124
1.41543
1.37301
1.37512
1.3796
1.37997
1.37898
1.37528
1.36819
1.35784
1.34493
1.33043
1.31529
1.30022
1.28568
1.27185
1.25867
1.246
1.23377
1.2221
1.21145
1.41523
1.37206
1.37389
1.37824
1.37847
1.37746
1.37391
1.36709
1.35722
1.34495
1.33109
1.31646
1.30171
1.28727
1.27335
1.25996
1.24701
1.2345
1.22254
1.21159
1.41513
1.37158
1.37326
1.37755
1.37773
1.37671
1.37322
1.36654
1.35691
1.34493
1.33136
1.31697
1.30239
1.28801
1.27405
1.26057
1.24751
1.23486
1.22276
1.21166
1.41507
1.3714
1.37302
1.37725
1.37739
1.37633
1.37284
1.36616
1.35654
1.34459
1.33106
1.3167
1.30216
1.28782
1.27391
1.26046
1.24743
1.2348
1.22273
1.21165
1.41517
1.37187
1.37364
1.37793
1.37812
1.37708
1.37352
1.3667
1.35686
1.34461
1.33078
1.31619
1.30148
1.28708
1.2732
1.25984
1.24693
1.23444
1.22251
1.21158
1.41537
1.37283
1.37486
1.37928
1.3796
1.37859
1.37488
1.3678
1.35747
1.3446
1.33014
1.31503
1.29999
1.28549
1.2717
1.25855
1.24592
1.23372
1.22208
1.21144
1.41566
1.37422
1.37662
1.38127
1.38179
1.38081
1.37686
1.3694
1.35851
1.34447
1.32886
1.3129
1.29738
1.28276
1.26925
1.25651
1.24435
1.23261
1.22142
1.21123
1.41598
1.37598
1.37885
1.3838
1.38457
1.38366
1.37936
1.37208
1.36199
1.34879
1.33187
1.31463
1.29801
1.27846
1.26555
1.25356
1.24218
1.23114
1.22056
1.21095
1.41629
1.37799
1.3814
1.38677
1.38789
1.38701
1.38175
1.37321
1.35841
1.29187
1.27721
1.26031
1.24964
1.23938
1.22932
1.21954
1.21063
1.41653
1.38006
1.38404
1.38991
1.39169
1.38998
1.38234
1.25728
1.24467
1.23612
1.22729
1.21843
1.21029
1.41664
1.38193
1.38647
1.39294
1.39339
1.39456
1.20242
1.20241
1.24851
1.24225
1.23288
1.22535
1.21738
1.20997
1.41663
1.38337
1.38835
1.39543
1.3966
1.39747
1.20245
1.20351
1.20349
1.20247
1.20237
1.23683
1.23026
1.2238
1.21656
1.20971
1.41662
1.38415
1.38932
1.39665
1.39881
1.20245
1.20354
1.20361
1.20358
1.20347
1.2024
1.23289
1.22869
1.22292
1.21611
1.20957
1.41662
1.38415
1.38932
1.39665
1.39916
1.20245
1.20353
1.20361
1.20358
1.20347
1.20244
1.23198
1.22869
1.22292
1.21611
1.20957
1.41663
1.38337
1.38835
1.39543
1.39807
1.20252
1.20351
1.20349
1.20255
1.20238
1.23457
1.23026
1.2238
1.21656
1.20971
1.41664
1.38193
1.38647
1.39294
1.39507
1.3956
1.20242
1.20244
1.20247
1.20239
1.23941
1.23288
1.22535
1.21738
1.20997
1.41653
1.38006
1.38404
1.38991
1.39169
1.39246
1.25271
1.24467
1.23612
1.22729
1.21843
1.21029
1.41629
1.37799
1.3814
1.38677
1.38789
1.38701
1.38242
1.37216
1.27286
1.26031
1.24964
1.23938
1.22932
1.21954
1.21063
1.41598
1.37598
1.37885
1.3838
1.38457
1.38366
1.37936
1.37211
1.36071
1.34661
1.32963
1.31216
1.29552
1.27846
1.26555
1.25356
1.24218
1.23114
1.22056
1.21095
1.41566
1.37422
1.37662
1.38127
1.38179
1.38081
1.37685
1.3694
1.35851
1.34447
1.32886
1.3129
1.29738
1.28276
1.26925
1.25651
1.24435
1.23261
1.22142
1.21123
1.41537
1.37283
1.37486
1.37928
1.3796
1.37859
1.37488
1.3678
1.35747
1.3446
1.33014
1.31503
1.29999
1.28549
1.2717
1.25855
1.24592
1.23372
1.22208
1.21144
1.41517
1.37187
1.37364
1.37793
1.37812
1.37708
1.37352
1.3667
1.35686
1.34461
1.33078
1.31619
1.30148
1.28708
1.2732
1.25984
1.24693
1.23444
1.22251
1.21158
1.41507
1.3714
1.37302
1.37725
1.37739
1.37633
1.37284
1.36616
1.35654
1.34459
1.33106
1.3167
1.30216
1.28782
1.27391
1.26046
1.24743
1.2348
1.22273
1.21165
1.41499
1.37119
1.37273
1.3769
1.37698
1.37589
1.37238
1.36571
1.35611
1.34419
1.33071
1.3164
1.30191
1.28762
1.27374
1.26034
1.24734
1.23474
1.22269
1.21164
1.41509
1.37166
1.37335
1.37757
1.37771
1.37663
1.37306
1.36625
1.35643
1.34422
1.33044
1.31589
1.30123
1.28688
1.27304
1.25972
1.24685
1.23439
1.22248
1.21157
1.4153
1.37261
1.37456
1.37891
1.37917
1.37813
1.37441
1.36734
1.35704
1.34421
1.32979
1.31473
1.29974
1.28528
1.27154
1.25844
1.24584
1.23366
1.22205
1.21143
1.41558
1.37399
1.3763
1.38088
1.38134
1.38033
1.37637
1.36893
1.35807
1.34409
1.32853
1.31263
1.29715
1.28256
1.26909
1.25639
1.24427
1.23257
1.2214
1.21122
1.41591
1.37574
1.37851
1.38339
1.3841
1.38317
1.37888
1.37163
1.36161
1.34846
1.33157
1.31435
1.29778
1.27828
1.26541
1.25346
1.24211
1.2311
1.22054
1.21095
1.41623
1.37774
1.38105
1.38634
1.3874
1.3865
1.3813
1.37276
1.35804
1.29168
1.27704
1.26019
1.24955
1.23932
1.22928
1.21952
1.21063
1.41648
1.3798
1.38367
1.38945
1.39119
1.38948
1.38188
1.25721
1.24461
1.23606
1.22726
1.21841
1.21028
1.4166
1.38167
1.38608
1.39247
1.3929
1.39407
1.20632
1.2063
1.24846
1.24219
1.23284
1.22532
1.21737
1.20996
1.41662
1.3831
1.38795
1.39495
1.39612
1.39702
1.20635
1.20739
1.20736
1.20629
1.20625
1.23681
1.23023
1.22377
1.21655
1.20971
1.41661
1.38388
1.38891
1.39616
1.39833
1.20636
1.20742
1.20744
1.20741
1.20733
1.20625
1.2329