/*--------------------------------*- C++ -*----------------------------------*\
  =========                 |
  \\      /  F ield         | OpenFOAM: The Open Source CFD Toolbox
   \\    /   O peration     | Website:  https://openfoam.org
    \\  /    A nd           | Version:  11
     \\/     M anipulation  |
\*---------------------------------------------------------------------------*/
FoamFile
{
    format      ascii;
    class       volScalarField;
    location    "0.0003";
    object      T;
}
// * * * * * * * * * * * * * * * * * * * * * * * * * * * * * * * * * * * * * //

dimensions      [0 0 0 1 0 0 0];

internalField   nonuniform List<scalar> 
21740
(
300.619
309.24
313.789
314.827
314.494
313.665
312.567
311.35
310.126
308.968
307.922
307.01
306.241
305.612
305.105
304.695
304.347
303.991
303.545
302.919
300.69
309.332
313.874
314.914
314.588
313.759
312.653
311.419
310.173
308.993
307.927
307.001
306.224
305.591
305.086
304.679
304.334
303.982
303.54
302.917
300.836
309.52
314.046
315.092
314.78
313.953
312.832
311.561
310.262
309.033
307.927
306.974
306.182
305.545
305.043
304.643
304.308
303.964
303.53
302.913
301.06
309.804
314.306
315.366
315.081
314.26
313.12
311.777
310.374
309.062
307.895
306.903
306.095
305.458
304.969
304.585
304.266
303.936
303.515
302.907
301.363
310.179
314.651
315.738
315.505
314.703
313.53
312.678
310.838
309.268
308.029
306.988
306.153
305.302
304.854
304.501
304.21
303.9
303.496
302.899
301.734
310.627
315.069
316.209
316.068
315.312
314.481
312.727
312.13
305.867
305.27
304.689
304.39
304.138
303.855
303.474
302.89
302.151
311.115
315.526
316.747
316.768
316.368
315.604
304.6
304.261
304.056
303.808
303.45
302.881
302.57
311.589
315.972
317.284
317.471
316.962
300.274
300.274
304.358
304.199
303.979
303.764
303.428
302.873
302.923
311.978
316.348
317.766
318.049
317.932
300.274
300.275
300.275
300.274
300.274
304.069
303.922
303.732
303.412
302.866
303.126
312.198
316.562
318.046
318.418
300.274
300.275
300.275
300.275
300.275
300.274
303.984
303.889
303.714
303.404
302.863
303.126
312.198
316.562
318.046
318.497
300.274
300.275
300.275
300.275
300.275
300.274
303.965
303.889
303.714
303.404
302.863
302.923
311.978
316.348
317.766
318.267
300.274
300.275
300.275
300.274
300.274
304.02
303.922
303.732
303.412
302.866
302.57
311.589
315.972
317.284
317.789
317.481
300.274
300.274
300.274
300.274
304.13
303.979
303.764
303.428
302.873
302.151
311.115
315.526
316.747
316.768
316.735
304.472
304.261
304.056
303.808
303.45
302.881
301.734
310.627
315.069
316.209
316.068
315.312
314.712
314.182
305.119
304.689
304.39
304.138
303.855
303.474
302.89
301.363
310.179
314.651
315.738
315.505
314.703
313.53
312.878
310.791
309.491
308.003
306.878
306.009
305.302
304.854
304.501
304.21
303.9
303.496
302.899
301.06
309.804
314.306
315.366
315.081
314.26
313.12
311.778
310.375
309.062
307.895
306.903
306.095
305.458
304.969
304.585
304.266
303.936
303.515
302.907
300.836
309.52
314.046
315.092
314.78
313.953
312.832
311.561
310.262
309.033
307.927
306.974
306.182
305.545
305.043
304.643
304.308
303.964
303.53
302.913
300.69
309.332
313.874
314.914
314.588
313.759
312.653
311.419
310.173
308.993
307.927
307.001
306.224
305.591
305.086
304.679
304.334
303.982
303.54
302.917
300.619
309.24
313.789
314.827
314.494
313.665
312.567
311.35
310.126
308.968
307.922
307.01
306.241
305.612
305.105
304.695
304.347
303.991
303.545
302.919
300.618
309.238
313.787
314.825
314.492
313.663
312.565
311.348
310.124
308.967
307.921
307.009
306.24
305.611
305.105
304.695
304.346
303.991
303.545
302.919
300.688
309.33
313.872
314.912
314.586
313.757
312.651
311.417
310.171
308.991
307.926
307
306.223
305.591
305.085
304.678
304.334
303.982
303.54
302.917
300.834
309.518
314.044
315.091
314.778
313.951
312.83
311.559
310.26
309.032
307.926
306.973
306.182
305.544
305.042
304.642
304.307
303.964
303.53
302.913
301.058
309.802
314.304
315.364
315.079
314.258
313.118
311.775
310.372
309.06
307.893
306.902
306.094
305.457
304.969
304.585
304.266
303.936
303.515
302.907
301.361
310.176
314.649
315.736
315.502
314.7
313.525
312.417
310.786
309.256
308.025
306.981
306.148
305.302
304.854
304.501
304.209
303.899
303.496
302.899
301.732
310.625
315.067
316.207
316.066
315.307
314.232
312.675
312.134
305.866
305.269
304.689
304.39
304.137
303.855
303.473
302.89
302.148
311.112
315.524
316.746
316.765
316.211
315.588
304.6
304.261
304.056
303.808
303.45
302.881
302.568
311.587
315.971
317.281
317.363
316.949
300.28
300.28
304.358
304.2
303.979
303.764
303.428
302.873
302.921
311.976
316.348
317.765
317.997
317.935
300.28
300.283
300.283
300.28
300.28
304.07
303.922
303.732
303.412
302.866
303.124
312.196
316.562
318.046
318.396
300.28
300.283
300.283
300.283
300.283
300.28
303.984
303.89
303.714
303.404
302.863
303.124
312.196
316.562
318.046
318.48
300.28
300.283
300.283
300.283
300.283
300.28
303.965
303.89
303.714
303.404
302.863
302.921
311.976
316.348
317.765
318.229
300.28
300.283
300.283
300.28
300.28
304.02
303.922
303.732
303.412
302.866
302.568
311.587
315.971
317.281
317.707
317.478
300.28
300.28
300.28
300.28
304.13
303.979
303.764
303.428
302.873
302.148
311.112
315.524
316.746
316.765
316.626
304.471
304.261
304.056
303.808
303.45
302.881
301.732
310.625
315.067
316.207
316.066
315.307
314.551
314.153
305.119
304.689
304.39
304.137
303.855
303.473
302.89
301.361
310.176
314.649
315.736
315.502
314.7
313.525
312.641
310.765
309.486
308
306.874
306.007
305.302
304.854
304.501
304.209
303.899
303.496
302.899
301.058
309.802
314.304
315.364
315.079
314.258
313.118
311.776
310.372
309.06
307.893
306.902
306.094
305.457
304.969
304.585
304.266
303.936
303.515
302.907
300.834
309.518
314.044
315.091
314.778
313.951
312.83
311.559
310.26
309.032
307.926
306.973
306.182
305.544
305.042
304.642
304.307
303.964
303.53
302.913
300.688
309.33
313.872
314.912
314.586
313.757
312.651
311.417
310.171
308.991
307.926
307
306.223
305.591
305.085
304.678
304.334
303.982
303.54
302.917
300.618
309.238
313.787
314.825
314.492
313.663
312.565
311.348
310.124
308.967
307.921
307.009
306.24
305.611
305.105
304.695
304.346
303.991
303.545
302.919
300.616
309.236
313.786
314.823
314.49
313.662
312.563
311.346
310.122
308.965
307.919
307.007
306.239
305.61
305.104
304.694
304.346
303.99
303.544
302.919
300.687
309.328
313.87
314.911
314.584
313.756
312.649
311.415
310.169
308.989
307.924
306.999
306.222
305.589
305.084
304.677
304.333
303.981
303.54
302.917
300.832
309.516
314.042
315.089
314.776
313.949
312.828
311.557
310.258
309.03
307.924
306.971
306.18
305.543
305.041
304.642
304.307
303.963
303.53
302.913
301.056
309.799
314.302
315.362
315.077
314.256
313.116
311.774
310.37
309.058
307.892
306.901
306.093
305.456
304.968
304.584
304.266
303.936
303.515
302.907
301.359
310.174
314.647
315.734
315.5
314.698
313.523
312.415
310.784
309.254
308.024
306.98
306.147
305.301
304.853
304.5
304.209
303.899
303.496
302.899
301.73
310.622
315.065
316.205
316.064
315.306
314.23
312.674
312.132
305.865
305.268
304.689
304.39
304.137
303.855
303.473
302.89
302.146
311.11
315.522
316.744
316.764
316.209
315.587
304.599
304.26
304.056
303.807
303.45
302.881
302.566
311.585
315.969
317.28
317.361
316.948
300.295
300.295
304.358
304.199
303.979
303.764
303.428
302.872
302.92
311.974
316.347
317.764
317.996
317.933
300.295
300.3
300.3
300.295
300.295
304.07
303.922
303.731
303.412
302.866
303.123
312.195
316.561
318.045
318.395
300.295
300.3
300.3
300.3
300.3
300.295
303.984
303.889
303.714
303.404
302.863
303.123
312.195
316.561
318.045
318.479
300.295
300.3
300.3
300.3
300.3
300.295
303.965
303.889
303.714
303.404
302.863
302.92
311.974
316.347
317.764
318.228
300.295
300.3
300.3
300.295
300.295
304.02
303.922
303.731
303.412
302.866
302.566
311.584
315.969
317.28
317.705
317.477
300.295
300.295
300.295
300.295
304.13
303.979
303.764
303.428
302.872
302.146
311.11
315.522
316.744
316.764
316.625
304.471
304.26
304.056
303.807
303.45
302.881
301.73
310.622
315.065
316.205
316.064
315.306
314.549
314.151
305.118
304.689
304.39
304.137
303.855
303.473
302.89
301.359
310.174
314.647
315.735
315.5
314.698
313.523
312.639
310.763
309.484
307.998
306.872
306.006
305.301
304.853
304.5
304.209
303.899
303.496
302.899
301.056
309.799
314.302
315.362
315.077
314.256
313.116
311.774
310.37
309.058
307.892
306.901
306.093
305.456
304.968
304.584
304.266
303.936
303.515
302.907
300.832
309.516
314.042
315.089
314.776
313.949
312.828
311.557
310.258
309.03
307.924
306.971
306.18
305.543
305.041
304.642
304.307
303.963
303.53
302.913
300.687
309.328
313.87
314.911
314.584
313.756
312.649
311.416
310.169
308.989
307.924
306.999
306.222
305.589
305.084
304.677
304.333
303.981
303.54
302.917
300.616
309.236
313.786
314.823
314.49
313.662
312.563
311.346
310.122
308.965
307.919
307.007
306.239
305.61
305.104
304.694
304.346
303.99
303.544
302.919
300.614
309.233
313.783
314.82
314.487
313.658
312.56
311.343
310.119
308.962
307.916
307.005
306.237
305.608
305.102
304.693
304.345
303.99
303.544
302.918
300.685
309.325
313.867
314.908
314.581
313.752
312.646
311.412
310.166
308.986
307.921
306.996
306.219
305.587
305.083
304.676
304.332
303.981
303.539
302.916
300.83
309.513
314.039
315.086
314.773
313.946
312.824
311.553
310.255
309.027
307.921
306.969
306.178
305.541
305.04
304.64
304.306
303.963
303.529
302.912
301.054
309.796
314.299
315.359
315.073
314.252
313.112
311.77
310.367
309.055
307.889
306.898
306.091
305.454
304.967
304.583
304.265
303.935
303.515
302.907
301.356
310.171
314.644
315.732
315.497
314.694
313.519
312.411
310.781
309.251
308.021
306.977
306.145
305.299
304.852
304.499
304.208
303.899
303.496
302.899
301.728
310.619
315.062
316.202
316.061
315.302
314.226
312.671
312.129
305.863
305.266
304.688
304.389
304.136
303.855
303.473
302.89
302.145
311.108
315.52
316.742
316.761
316.206
315.583
304.598
304.26
304.055
303.807
303.449
302.881
302.566
311.584
315.968
317.277
317.358
316.945
300.319
300.319
304.357
304.199
303.978
303.764
303.428
302.872
302.92
311.974
316.346
317.762
317.993
317.93
300.319
300.327
300.326
300.319
300.319
304.069
303.922
303.732
303.412
302.866
303.125
312.195
316.561
318.043
318.391
300.319
300.327
300.327
300.327
300.326
300.319
303.984
303.889
303.714
303.404
302.863
303.125
312.195
316.561
318.043
318.476
300.319
300.327
300.327
300.327
300.326
300.319
303.965
303.889
303.714
303.404
302.863
302.92
311.974
316.346
317.762
318.224
300.319
300.327
300.326
300.319
300.319
304.02
303.922
303.732
303.412
302.866
302.566
311.584
315.968
317.277
317.702
317.473
300.319
300.319
300.319
300.319
304.13
303.978
303.764
303.428
302.872
302.145
311.108
315.52
316.742
316.761
316.621
304.47
304.26
304.055
303.807
303.449
302.881
301.728
310.619
315.062
316.202
316.061
315.302
314.546
314.148
305.117
304.688
304.389
304.136
303.855
303.473
302.89
301.356
310.171
314.644
315.732
315.497
314.694
313.519
312.636
310.759
309.481
307.995
306.87
306.004
305.299
304.852
304.499
304.208
303.899
303.496
302.899
301.054
309.796
314.299
315.359
315.073
314.252
313.112
311.77
310.367
309.055
307.889
306.898
306.091
305.454
304.967
304.583
304.265
303.935
303.515
302.907
300.83
309.513
314.039
315.086
314.773
313.946
312.824
311.553
310.255
309.027
307.921
306.969
306.178
305.541
305.04
304.64
304.306
303.963
303.529
302.912
300.685
309.325
313.867
314.908
314.581
313.752
312.646
311.412
310.166
308.986
307.921
306.996
306.219
305.588
305.083
304.676
304.332
303.981
303.539
302.916
300.614
309.233
313.783
314.82
314.487
313.658
312.56
311.343
310.119
308.962
307.916
307.005
306.237
305.608
305.102
304.693
304.345
303.99
303.544
302.918
300.611
309.228
313.779
314.816
314.482
313.653
312.555
311.338
310.114
308.958
307.912
307.001
306.234
305.605
305.1
304.691
304.343
303.989
303.544
302.918
300.682
309.321
313.863
314.903
314.576
313.747
312.641
311.407
310.161
308.982
307.917
306.993
306.217
305.585
305.08
304.674
304.331
303.98
303.539
302.916
300.827
309.508
314.035
315.081
314.768
313.941
312.819
311.548
310.25
309.022
307.917
306.966
306.175
305.539
305.038
304.639
304.305
303.962
303.529
302.912
301.051
309.792
314.295
315.355
315.069
314.247
313.107
311.765
310.362
309.05
307.884
306.895
306.088
305.452
304.965
304.582
304.264
303.935
303.514
302.906
301.354
310.167
314.641
315.728
315.493
314.689
313.514
312.406
310.776
309.246
308.017
306.974
306.142
305.298
304.851
304.498
304.208
303.898
303.495
302.899
301.727
310.617
315.06
316.2
316.058
315.298
314.221
312.666
312.124
305.861
305.264
304.686
304.388
304.136
303.854
303.473
302.89
302.146
311.107
315.52
316.741
316.758
316.201
315.578
304.597
304.259
304.055
303.807
303.449
302.881
302.569
311.585
315.97
317.277
317.353
316.94
300.352
300.352
304.356
304.198
303.979
303.764
303.428
302.873
302.926
311.979
316.35
317.762
317.988
317.925
300.352
300.363
300.362
300.352
300.352
304.069
303.922
303.732
303.413
302.867
303.132
312.202
316.567
318.044
318.388
300.352
300.363
300.364
300.363
300.362
300.352
303.983
303.89
303.715
303.405
302.863
303.132
312.202
316.567
318.044
318.472
300.352
300.363
300.364
300.363
300.362
300.352
303.964
303.89
303.715
303.405
302.863
302.926
311.979
316.35
317.762
318.22
300.353
300.363
300.362
300.352
300.352
304.019
303.922
303.732
303.413
302.867
302.568
311.585
315.97
317.277
317.698
317.469
300.352
300.352
300.352
300.352
304.129
303.979
303.764
303.428
302.873
302.146
311.107
315.52
316.741
316.758
316.617
304.469
304.259
304.055
303.807
303.449
302.881
301.727
310.617
315.06
316.2
316.058
315.298
314.54
314.142
305.115
304.686
304.388
304.136
303.854
303.473
302.89
301.354
310.167
314.641
315.728
315.493
314.689
313.514
312.631
310.754
309.477
307.991
306.867
306.001
305.298
304.851
304.498
304.208
303.898
303.495
302.899
301.051
309.792
314.295
315.355
315.069
314.247
313.107
311.765
310.362
309.05
307.884
306.895
306.088
305.452
304.965
304.582
304.264
303.935
303.514
302.906
300.827
309.508
314.035
315.081
314.768
313.941
312.819
311.548
310.25
309.022
307.917
306.966
306.175
305.539
305.038
304.639
304.305
303.962
303.529
302.912
300.682
309.321
313.863
314.903
314.576
313.747
312.641
311.407
310.161
308.982
307.917
306.993
306.217
305.585
305.081
304.674
304.331
303.98
303.539
302.916
300.611
309.228
313.779
314.816
314.482
313.653
312.555
311.338
310.114
308.958
307.912
307.001
306.234
305.605
305.1
304.691
304.343
303.989
303.544
302.918
300.607
309.223
313.773
314.811
314.476
313.647
312.548
311.331
310.108
308.952
307.907
306.997
306.23
305.602
305.097
304.689
304.342
303.988
303.543
302.918
300.678
309.315
313.858
314.898
314.57
313.74
312.634
311.4
310.154
308.976
307.912
306.989
306.213
305.582
305.078
304.672
304.329
303.979
303.538
302.916
300.823
309.503
314.03
315.076
314.761
313.933
312.811
311.54
310.243
309.016
307.913
306.962
306.172
305.537
305.036
304.637
304.303
303.961
303.528
302.912
301.048
309.787
314.29
315.349
315.061
314.238
313.098
311.756
310.354
309.043
307.879
306.891
306.086
305.451
304.964
304.58
304.263
303.934
303.514
302.906
301.352
310.163
314.637
315.723
315.485
314.679
313.503
312.397
310.768
309.236
308.01
306.968
306.139
305.297
304.85
304.497
304.207
303.898
303.495
302.899
301.726
310.615
315.059
316.197
316.052
315.29
314.213
312.661
312.124
305.856
305.262
304.686
304.388
304.136
303.854
303.473
302.89
302.147
311.108
315.522
316.741
316.755
316.192
315.571
304.595
304.259
304.055
303.807
303.45
302.881
302.574
311.59
315.976
317.281
317.35
316.935
300.395
300.395
304.355
304.198
303.98
303.765
303.429
302.873
302.936
311.989
316.362
317.771
317.987
317.919
300.396
300.41
300.409
300.396
300.395
304.068
303.923
303.734
303.414
302.867
303.145
312.215
316.583
318.057
318.386
300.396
300.41
300.412
300.411
300.409
300.395
303.983
303.891
303.717
303.406
302.864
303.145
312.215
316.583
318.057
318.471
300.396
300.41
300.412
300.411
300.409
300.395
303.963
303.891
303.717
303.406
302.864
302.936
311.989
316.362
317.771
318.219
300.396
300.41
300.409
300.396
300.395
304.019
303.923
303.734
303.414
302.867
302.574
311.59
315.976
317.281
317.696
317.463
300.396
300.396
300.395
300.395
304.129
303.98
303.765
303.429
302.873
302.147
311.108
315.522
316.741
316.755
316.609
304.467
304.259
304.055
303.807
303.45
302.881
301.726
310.615
315.059
316.197
316.052
315.29
314.534
314.141
305.112
304.686
304.388
304.136
303.854
303.473
302.89
301.352
310.163
314.637
315.723
315.485
314.679
313.503
312.621
310.748
309.475
307.985
306.86
305.998
305.297
304.85
304.497
304.207
303.898
303.495
302.899
301.048
309.787
314.29
315.349
315.061
314.238
313.098
311.756
310.354
309.043
307.879
306.891
306.086
305.451
304.964
304.58
304.263
303.934
303.514
302.906
300.823
309.503
314.03
315.076
314.761
313.933
312.811
311.54
310.243
309.016
307.913
306.962
306.172
305.537
305.036
304.637
304.303
303.961
303.528
302.912
300.678
309.315
313.858
314.898
314.57
313.74
312.634
311.4
310.154
308.976
307.912
306.989
306.213
305.582
305.078
304.672
304.329
303.979
303.538
302.916
300.607
309.223
313.773
314.811
314.476
313.647
312.548
311.331
310.108
308.952
307.907
306.997
306.23
305.602
305.097
304.689
304.342
303.988
303.543
302.918
300.602
309.216
313.766
314.803
314.469
313.639
312.54
311.323
310.1
308.944
307.9
306.991
306.225
305.598
305.094
304.686
304.34
303.986
303.542
302.918
300.672
309.308
313.851
314.89
314.562
313.732
312.625
311.391
310.146
308.969
307.906
306.983
306.208
305.578
305.075
304.669
304.327
303.977
303.537
302.916
300.818
309.496
314.023
315.068
314.753
313.923
312.801
311.53
310.233
309.008
307.907
306.957
306.168
305.533
305.033
304.635
304.301
303.96
303.528
302.912
301.043
309.78
314.284
315.341
315.052
314.226
313.084
311.742
310.34
309.033
307.872
306.887
306.083
305.449
304.962
304.578
304.261
303.933
303.513
302.906
301.347
310.157
314.632
315.715
315.474
314.658
313.482
312.379
310.74
309.215
308
306.962
306.137
305.298
304.85
304.497
304.206
303.897
303.495
302.898
301.723
310.61
315.055
316.191
316.04
315.264
314.189
312.688
312.217
305.853
305.262
304.687
304.388
304.136
303.854
303.473
302.89
302.147
311.106
315.521
316.738
316.749
316.164
315.585
304.594
304.26
304.056
303.808
303.45
302.881
302.578
311.592
315.981
317.284
317.349
316.935
300.445
300.446
304.353
304.199
303.981
303.766
303.43
302.873
302.944
311.996
316.374
317.784
317.987
317.916
300.449
300.47
300.469
300.45
300.45
304.069
303.926
303.735
303.415
302.867
303.156
312.226
316.599
318.076
318.394
300.446
300.47
300.474
300.473
300.469
300.447
303.981
303.894
303.719
303.408
302.864
303.156
312.226
316.599
318.076
318.48
300.447
300.47
300.474
300.473
300.469
300.449
303.962
303.894
303.719
303.408
302.864
302.944
311.996
316.374
317.784
318.224
300.451
300.47
300.469
300.452
300.446
304.018
303.926
303.735
303.415
302.867
302.578
311.592
315.981
317.284
317.7
317.463
300.452
300.448
300.449
300.446
304.13
303.981
303.766
303.43
302.873
302.147
311.106
315.521
316.737
316.749
316.587
304.463
304.26
304.056
303.808
303.45
302.881
301.723
310.61
315.055
316.191
316.04
315.263
314.557
314.213
305.114
304.687
304.388
304.136
303.854
303.473
302.89
301.347
310.157
314.632
315.715
315.474
314.658
313.482
312.591
310.781
309.513
307.98
306.84
305.99
305.298
304.85
304.497
304.206
303.897
303.495
302.898
301.043
309.78
314.284
315.341
315.052
314.226
313.084
311.742
310.34
309.033
307.872
306.887
306.083
305.449
304.962
304.578
304.261
303.933
303.513
302.906
300.818
309.496
314.023
315.068
314.753
313.923
312.801
311.53
310.233
309.008
307.907
306.957
306.169
305.533
305.033
304.635
304.301
303.96
303.528
302.912
300.673
309.308
313.851
314.89
314.562
313.732
312.625
311.391
310.146
308.969
307.906
306.983
306.208
305.578
305.075
304.669
304.327
303.977
303.537
302.916
300.602
309.216
313.766
314.803
314.469
313.639
312.54
311.323
310.1
308.944
307.9
306.991
306.225
305.598
305.094
304.686
304.34
303.986
303.542
302.918
300.595
309.206
313.758
314.794
314.459
313.629
312.529
311.313
310.09
308.936
307.892
306.984
306.219
305.592
305.089
304.682
304.337
303.984
303.541
302.917
300.666
309.298
313.842
314.881
314.552
313.721
312.614
311.381
310.136
308.96
307.898
306.976
306.202
305.573
305.07
304.666
304.325
303.976
303.536
302.915
300.811
309.486
314.014
315.059
314.742
313.913
312.789
311.519
310.223
308.999
307.899
306.951
306.163
305.529
305.029
304.631
304.299
303.958
303.527
302.911
301.035
309.77
314.274
315.332
315.041
314.214
313.071
311.73
310.328
309.023
307.864
306.88
306.078
305.445
304.958
304.576
304.259
303.931
303.512
302.906
301.34
310.147
314.622
315.705
315.463
314.643
313.466
312.36
310.712
309.197
307.989
306.954
306.133
305.295
304.847
304.494
304.204
303.895
303.494
302.898
301.715
310.6
315.046
316.181
316.028
315.246
314.167
312.716
312.324
300.455
300.455
300.454
305.85
305.261
304.685
304.387
304.134
303.853
303.472
302.889
302.139
311.096
315.513
316.728
316.738
316.136
315.604
300.455
300.46
300.467
300.469
300.463
300.455
300.454
304.593
304.259
304.055
303.807
303.449
302.881
302.57
311.583
315.974
317.277
317.346
316.939
300.456
300.466
300.488
300.503
300.506
300.496
300.475
300.457
304.351
304.199
303.981
303.765
303.429
302.873
302.938
311.988
316.368
317.779
317.983
317.915
300.46
300.489
300.54
300.548
300.547
300.538
300.503
300.47
300.454
304.07
303.926
303.735
303.415
302.867
303.15
312.219
316.595
318.074
318.396
300.456
300.468
300.504
300.548
300.554
300.554
300.546
300.513
300.484
300.456
303.98
303.894
303.719
303.408
302.864
303.15
312.219
316.595
318.074
318.483
300.456
300.47
300.508
300.548
300.554
300.554
300.546
300.516
300.487
300.456
303.96
303.894
303.719
303.408
302.864
302.938
311.988
316.368
317.779
318.224
300.456
300.464
300.498
300.54
300.548
300.547
300.538
300.509
300.478
300.454
304.018
303.926
303.735
303.415
302.867
302.57
311.583
315.974
317.277
317.699
317.464
300.457
300.476
300.504
300.515
300.516
300.51
300.49
300.462
300.454
304.13
303.981
303.765
303.429
302.873
302.139
311.096
315.513
316.728
316.738
316.568
300.455
300.458
300.471
300.486
300.488
300.478
300.463
300.454
304.459
304.259
304.055
303.807
303.449
302.881
301.715
310.6
315.046
316.181
316.028
315.246
314.582
314.302
300.455
300.457
300.457
300.455
300.455
305.114
304.685
304.387
304.134
303.853
303.472
302.889
301.34
310.147
314.622
315.705
315.463
314.643
313.466
312.561
310.814
309.555
307.974
306.82
305.983
305.295
304.847
304.494
304.204
303.895
303.494
302.898
301.035
309.77
314.274
315.332
315.041
314.214
313.071
311.73
310.328
309.023
307.864
306.88
306.078
305.445
304.958
304.576
304.259
303.931
303.512
302.906
300.811
309.486
314.014
315.059
314.742
313.913
312.789
311.519
310.223
308.999
307.899
306.951
306.163
305.529
305.029
304.631
304.299
303.958
303.527
302.911
300.666
309.298
313.842
314.881
314.552
313.721
312.614
311.381
310.136
308.96
307.898
306.976
306.202
305.573
305.07
304.666
304.325
303.976
303.536
302.915
300.595
309.206
313.758
314.794
314.459
313.629
312.529
311.313
310.09
308.936
307.892
306.984
306.219
305.592
305.089
304.682
304.337
303.984
303.541
302.917
300.587
309.195
313.747
314.783
314.447
313.616
312.517
311.301
310.079
308.925
307.883
306.975
306.211
305.586
305.084
304.678
304.334
303.982
303.54
302.917
300.657
309.286
313.831
314.87
314.54
313.709
312.602
311.369
310.125
308.949
307.888
306.967
306.195
305.566
305.065
304.662
304.322
303.974
303.535
302.915
300.802
309.473
314.002
315.047
314.73
313.901
312.778
311.508
310.212
308.989
307.889
306.941
306.155
305.522
305.024
304.627
304.296
303.956
303.526
302.911
301.025
309.756
314.262
315.319
315.029
314.204
313.063
311.722
310.321
309.015
307.855
306.871
306.069
305.437
304.953
304.571
304.256
303.929
303.511
302.905
301.327
310.131
314.608
315.692
315.451
314.64
313.464
312.357
310.717
309.196
307.984
306.948
306.124
305.286
304.841
304.49
304.201
303.893
303.493
302.898
301.7
310.582
315.03
316.166
316.017
315.248
314.167
312.665
312.195
305.842
305.253
304.678
304.382
304.131
303.851
303.471
302.889
302.121
311.075
315.494
316.711
316.723
316.145
315.563
304.588
304.254
304.051
303.805
303.448
302.88
302.548
311.559
315.951
317.255
317.331
316.913
300.595
300.604
304.348
304.195
303.977
303.763
303.428
302.872
302.911
311.96
316.34
317.749
317.969
317.894
300.609
300.651
300.65
300.613
300.59
304.066
303.922
303.732
303.414
302.866
303.121
312.188
316.563
318.038
318.375
300.596
300.652
300.657
300.656
300.649
300.607
303.979
303.89
303.716
303.406
302.864
303.121
312.188
316.563
318.038
318.462
300.606
300.652
300.657
300.656
300.649
300.609
303.959
303.89
303.716
303.406
302.864
302.911
311.96
316.34
317.749
318.206
300.616
300.651
300.65
300.62
300.605
304.015
303.922
303.732
303.414
302.866
302.548
311.559
315.951
317.254
317.68
317.441
300.593
300.609
300.611
300.606
304.126
303.977
303.763
303.428
302.872
302.121
311.075
315.494
316.711
316.723
316.569
304.458
304.254
304.051
303.805
303.448
302.88
301.7
310.582
315.03
316.166
316.017
315.248
314.535
314.19
305.105
304.678
304.382
304.131
303.851
303.471
302.889
301.327
310.131
314.608
315.692
315.451
314.64
313.464
312.569
310.76
309.494
307.962
306.826
305.979
305.286
304.841
304.49
304.201
303.893
303.493
302.898
301.025
309.756
314.262
315.319
315.029
314.204
313.063
311.722
310.321
309.015
307.855
306.871
306.069
305.437
304.953
304.571
304.256
303.929
303.511
302.905
300.802
309.473
314.002
315.047
314.73
313.901
312.778
311.508
310.212
308.989
307.889
306.941
306.155
305.522
305.024
304.627
304.296
303.956
303.526
302.911
300.657
309.286
313.831
314.87
314.54
313.709
312.602
311.369
310.125
308.949
307.888
306.967
306.195
305.566
305.065
304.662
304.322
303.974
303.535
302.915
300.587
309.195
313.747
314.783
314.447
313.616
312.517
311.301
310.079
308.925
307.883
306.975
306.211
305.586
305.084
304.678
304.334
303.982
303.54
302.917
300.577
309.181
313.733
314.769
314.432
313.601
312.502
311.286
310.065
308.912
307.871
306.965
306.202
305.578
305.078
304.674
304.331
303.98
303.539
302.916
300.646
309.272
313.817
314.856
314.525
313.694
312.587
311.355
310.111
308.936
307.876
306.956
306.185
305.559
305.059
304.657
304.318
303.971
303.534
302.914
300.79
309.457
313.987
315.032
314.715
313.886
312.764
311.495
310.199
308.976
307.876
306.93
306.145
305.514
305.017
304.622
304.293
303.954
303.524
302.91
301.011
309.738
314.245
315.303
315.014
314.19
313.051
311.711
310.311
309.004
307.844
306.86
306.059
305.428
304.946
304.566
304.252
303.927
303.51
302.905
301.311
310.111
314.589
315.675
315.436
314.631
313.456
312.353
310.724
309.198
307.976
306.939
306.114
305.275
304.833
304.484
304.197
303.891
303.491
302.897
301.68
310.558
315.008
316.146
316
315.24
314.166
312.614
312.076
305.834
305.244
304.671
304.376
304.127
303.848
303.47
302.888
302.096
311.047
315.467
316.687
316.701
316.147
315.523
304.583
304.249
304.047
303.802
303.447
302.88
302.517
311.525
315.918
317.223
317.305
316.887
300.737
300.736
304.345
304.19
303.972
303.76
303.426
302.872
302.874
311.92
316.301
317.711
317.942
317.871
300.739
300.779
300.777
300.737
300.733
304.062
303.917
303.729
303.411
302.866
303.08
312.145
316.519
317.994
318.342
300.739
300.781
300.783
300.781
300.775
300.734
303.977
303.885
303.712
303.403
302.863
303.08
312.145
316.519
317.994
318.426
300.739
300.781
300.783
300.781
300.775
300.735
303.958
303.885
303.712
303.403
302.863
302.874
311.92
316.301
317.711
318.175
300.742
300.779
300.777
300.74
300.733
304.013
303.917
303.729
303.411
302.866
302.517
311.525
315.918
317.223
317.651
317.415
300.737
300.738
300.738
300.734
304.121
303.972
303.76
303.426
302.872
302.096
311.047
315.467
316.687
316.701
316.563
304.456
304.249
304.047
303.802
303.447
302.88
301.68
310.558
315.008
316.146
316
315.239
314.487
314.092
305.095
304.67
304.376
304.127
303.848
303.47
302.888
301.311
310.111
314.589
315.675
315.436
314.631
313.456
312.576
310.706
309.435
307.951
306.832
305.974
305.276
304.833
304.484
304.197
303.891
303.491
302.897
301.011
309.738
314.245
315.303
315.014
314.19
313.051
311.711
310.311
309.004
307.844
306.86
306.059
305.428
304.946
304.566
304.253
303.927
303.51
302.905
300.79
309.457
313.987
315.032
314.715
313.886
312.764
311.495
310.199
308.976
307.876
306.93
306.145
305.514
305.017
304.623
304.293
303.954
303.524
302.91
300.646
309.272
313.817
314.856
314.525
313.694
312.587
311.355
310.111
308.936
307.876
306.956
306.185
305.559
305.059
304.657
304.318
303.971
303.534
302.914
300.577
309.181
313.733
314.769
314.432
313.601
312.502
311.286
310.065
308.912
307.871
306.965
306.202
305.578
305.078
304.674
304.331
303.98
303.539
302.916
300.564
309.163
313.717
314.752
314.414
313.583
312.484
311.269
310.048
308.896
307.857
306.952
306.191
305.57
305.071
304.668
304.327
303.977
303.537
302.916
300.633
309.253
313.8
314.838
314.507
313.676
312.569
311.337
310.094
308.92
307.862
306.944
306.175
305.55
305.052
304.652
304.314
303.969
303.533
302.914
300.775
309.438
313.969
315.014
314.697
313.867
312.745
311.477
310.183
308.961
307.862
306.917
306.134
305.505
305.01
304.617
304.289
303.951
303.523
302.91
300.995
309.717
314.226
315.284
314.994
314.171
313.031
311.692
310.294
308.989
307.83
306.848
306.048
305.419
304.938
304.561
304.249
303.924
303.509
302.904
301.292
310.086
314.568
315.653
315.415
314.61
313.436
312.336
310.709
309.186
307.965
306.929
306.104
305.267
304.826
304.479
304.194
303.889
303.49
302.897
301.658
310.531
314.983
316.122
315.977
315.216
314.147
312.592
312.051
305.826
305.236
304.665
304.371
304.124
303.846
303.468
302.888
302.069
311.016
315.439
316.66
316.675
316.125
315.5
304.578
304.245
304.044
303.8
303.445
302.879
302.485
311.49
315.886
317.194
317.279
316.863
300.887
300.886
304.341
304.186
303.969
303.758
303.425
302.871
302.837
311.88
316.265
317.679
317.914
317.849
300.89
300.93
300.927
300.884
300.881
304.059
303.914
303.726
303.41
302.865
303.04
312.102
316.481
317.96
318.314
300.891
300.933
300.932
300.929
300.924
300.881
303.976
303.883
303.709
303.402
302.862
303.04
312.102
316.481
317.96
318.398
300.891