/*--------------------------------*- C++ -*----------------------------------*\
  =========                 |
  \\      /  F ield         | OpenFOAM: The Open Source CFD Toolbox
   \\    /   O peration     | Website:  https://openfoam.org
    \\  /    A nd           | Version:  11
     \\/     M anipulation  |
\*---------------------------------------------------------------------------*/
FoamFile
{
    format      ascii;
    class       volVectorField;
    location    "0.0003";
    object      U;
}
// * * * * * * * * * * * * * * * * * * * * * * * * * * * * * * * * * * * * * //

dimensions      [0 1 -1 0 0 0 0];

internalField   nonuniform List<vector> 
21740
(
(40.8009 -0.138681 0.00445895)
(52.5569 -0.444609 0.010993)
(38.2877 -0.699534 0.0150472)
(36.4995 -0.936938 0.0198922)
(39.43 -1.17292 0.0248319)
(40.2355 -1.35705 0.0284766)
(40.344 -1.4225 0.0303223)
(40.0884 -1.31794 0.0303965)
(39.0847 -1.03216 0.0294984)
(37.1353 -0.622548 0.0280406)
(34.2308 -0.192402 0.02591)
(30.5636 0.157121 0.0231118)
(26.4746 0.381718 0.0198195)
(22.3745 0.478563 0.0162808)
(18.5612 0.476469 0.0130242)
(15.2878 0.413554 0.0103097)
(12.6896 0.321034 0.0078127)
(10.827 0.223903 0.0054871)
(9.67404 0.130062 0.00324436)
(8.93499 0.0446468 0.00114327)
(40.4767 -0.42588 0.00443774)
(52.0056 -1.34942 0.0111453)
(37.8211 -2.10809 0.0154552)
(36.1493 -2.83082 0.0211353)
(39.1643 -3.56036 0.0268819)
(40.1326 -4.13897 0.0306241)
(40.5044 -4.35776 0.0321367)
(40.5568 -4.05025 0.0315137)
(39.8096 -3.14046 0.0296652)
(37.9655 -1.83413 0.0278357)
(34.989 -0.478632 0.0258738)
(31.1223 0.600435 0.0228669)
(26.8074 1.27014 0.0189801)
(22.4862 1.54318 0.0148996)
(18.5106 1.50087 0.0116012)
(15.1427 1.28017 0.00900207)
(12.5057 0.980335 0.00683284)
(10.6374 0.677512 0.00486836)
(9.48889 0.391145 0.00294907)
(8.75387 0.133775 0.00105516)
(39.809 -0.724059 0.00436248)
(50.8765 -2.27174 0.0113348)
(36.8253 -3.53862 0.016077)
(35.3235 -4.80018 0.0229073)
(38.4757 -6.12717 0.0294166)
(39.7784 -7.23701 0.0322251)
(40.7143 -7.73153 0.031986)
(41.4922 -7.18345 0.0303652)
(41.3907 -5.54166 0.0275544)
(39.7872 -3.01117 0.026577)
(36.6223 -0.416104 0.0267059)
(32.2886 1.52278 0.0246978)
(27.4105 2.61426 0.0196375)
(22.6062 2.99122 0.0144947)
(18.312 2.76338 0.0105423)
(14.7862 2.26913 0.0074369)
(12.1034 1.68681 0.00533602)
(10.2456 1.14379 0.00385293)
(9.11658 0.652102 0.00237735)
(8.39284 0.221605 0.000870086)
(38.803 -1.01645 0.00427333)
(49.1686 -3.17195 0.0115837)
(35.2637 -4.95586 0.0169087)
(33.9355 -6.83953 0.024757)
(37.2182 -8.94781 0.0304518)
(39.0252 -10.8854 0.0277937)
(40.8798 -11.8256 0.0237236)
(43.108 -10.6896 -0.00306181)
(44.1768 -7.99079 0.00153362)
(43.082 -4.0936 0.0197847)
(39.4482 0.153684 0.0259333)
(34.1317 3.37088 0.0296529)
(28.2577 4.6748 0.0262255)
(22.6023 5.07853 0.0170153)
(17.8211 4.3997 0.013186)
(14.1126 3.42257 0.00739012)
(11.4198 2.43549 0.00401428)
(9.62273 1.60901 0.00263082)
(8.54789 0.901815 0.00162753)
(7.85286 0.30388 0.000574722)
(37.4809 -1.27781 0.00395547)
(46.8958 -3.97535 0.0120655)
(33.0833 -6.2619 0.0179625)
(31.8338 -8.87156 0.0256178)
(35.0873 -12.0832 0.0268943)
(37.5325 -15.4187 0.00713795)
(41.2551 -16.7403 -0.0310699)
(41.4719 -16.9362 -0.0586659)
(47.1072 -13.6908 -0.337216)
(49 -8.18552 -0.0468609)
(44.7918 -1.66501 0.0094418)
(37.7523 2.67786 0.0546935)
(29.373 4.40674 0.0240687)
(21.2341 7.81542 0.0276072)
(16.7019 6.42478 0.025206)
(12.9202 4.66636 0.0112495)
(10.3687 3.17994 0.00392805)
(8.74688 2.02898 0.00171293)
(7.78765 1.11307 0.000804712)
(7.14973 0.371255 0.000258892)
(35.8984 -1.46349 0.00371186)
(44.127 -4.54127 0.0129243)
(30.2455 -7.22222 0.0190438)
(28.7699 -10.5371 0.0242045)
(31.5678 -15.2685 0.016237)
(34.8048 -21.0609 -0.0612742)
(36.8641 -24.5818 -0.0885027)
(45.1909 -26.6666 -0.298512)
(37.7363 -15.1194 -0.179694)
(29.2838 9.07074 0.0104981)
(21.1354 8.73998 0.0609569)
(14.0773 8.48076 0.039633)
(11.0506 5.81124 0.0187837)
(8.91858 3.75045 0.00570156)
(7.61043 2.3074 0.00148276)
(6.86563 1.23914 0.000208569)
(6.32368 0.409329 -3.96729e-05)
(34.1749 -1.5117 0.00347901)
(41.0485 -4.67458 0.0137717)
(26.8633 -7.49634 0.0197825)
(24.595 -11.1719 0.0206022)
(26.1583 -16.9061 -0.0338131)
(26.2509 -23.7475 -0.0786619)
(25.6168 -25.7413 -0.170326)
(13.0794 10.3854 0.0733952)
(8.37813 6.05575 0.0239118)
(7.1003 3.83825 0.00694663)
(6.31042 2.32008 0.00169642)
(5.86516 1.22861 -9.34612e-05)
(5.45173 0.403147 -0.000199607)
(32.5063 -1.35788 0.00331939)
(37.9945 -4.17091 0.0155251)
(23.2733 -6.76168 0.022232)
(20.0605 -10.3363 0.00946649)
(18.5602 -16.5699 -0.0759721)
(20.6624 -26.476 -0.386887)
(0.000615385 -0.000427691 -0.118632)
(0.000808932 -0.000594053 -0.119922)
(5.55833 9.34186 -0.0413037)
(6.04602 5.31693 0.0220479)
(5.2907 3.42823 0.00837544)
(5.03033 2.02244 0.00244773)
(4.91784 1.05541 -0.00015333)
(4.64305 0.344373 -0.000318726)
(31.1522 -0.96552 0.00318899)
(35.4451 -2.93553 0.0172444)
(20.0217 -4.78351 0.0234078)
(15.3742 -7.70433 0.00245262)
(12.1872 -12.2736 -0.041896)
(7.97494 -17.2285 -0.45624)
(-0.000553865 -0.00157745 -0.120557)
(0.00969332 0.00741655 -0.2454)
(-0.00745799 0.00761586 -0.245147)
(0.0217082 -0.00169114 -0.121448)
(0.00116177 0.000285873 -0.119443)
(4.12492 5.67605 0.060918)
(3.70707 2.38155 0.012253)
(4.00251 1.38521 0.00356719)
(4.17406 0.716097 4.1098e-06)
(4.01682 0.232884 -0.000361261)
(30.3772 -0.355082 0.00317476)
(33.9815 -1.07465 0.0180448)
(18.069 -1.74929 0.0235213)
(12.3791 -2.82455 0.00398231)
(7.72594 -5.79186 -0.0925777)
(-0.000105114 -0.000145607 -0.118779)
(0.00836253 0.00844119 -0.245596)
(0.000623836 -0.000673294 -0.245582)
(0.00182572 -0.000557975 -0.245396)
(-0.00668042 0.00871971 -0.245114)
(0.0191797 0.000403282 -0.121245)
(0.938559 2.70001 0.0105031)
(2.79061 0.838447 0.0114347)
(3.42085 0.486067 0.0038888)
(3.76304 0.251803 0.000108156)
(3.67425 0.0820078 -0.000354836)
(30.3772 0.355135 0.00317454)
(33.9815 1.07478 0.0180452)
(18.069 1.74939 0.023524)
(12.379 2.82462 0.00399478)
(6.05075 2.40005 -0.092879)
(-0.000473113 5.53632e-05 -0.120021)
(0.0083712 -0.00841711 -0.245477)
(0.000631644 0.000636843 -0.245624)
(0.00186693 0.000588184 -0.245176)
(-0.0067018 -0.00864689 -0.245006)
(0.021843 -0.00024414 -0.121601)
(0.625201 -0.9134 0.0087054)
(2.79063 -0.838455 0.0114342)
(3.42085 -0.48607 0.0038926)
(3.76303 -0.251799 0.000110384)
(3.67425 -0.0820022 -0.000354994)
(31.1522 0.965543 0.00318908)
(35.4451 2.93559 0.0172448)
(20.0218 4.78355 0.0234176)
(15.3742 7.70432 0.00245499)
(8.73721 9.76072 -0.0549916)
(-0.00133289 0.0210764 -0.12164)
(0.00969934 -0.00743911 -0.24554)
(-0.0074063 -0.00761338 -0.245114)
(0.021159 0.0198499 -0.120607)
(0.00141107 0.000115608 -0.121398)
(1.78047 -4.24262 0.0473597)
(3.70716 -2.38162 0.0122655)
(4.00252 -1.38524 0.00358137)
(4.17407 -0.716106 7.54468e-06)
(4.01681 -0.232884 -0.000362844)
(32.5063 1.35787 0.00332039)
(37.9945 4.17087 0.0155278)
(23.2732 6.76163 0.0222394)
(20.0605 10.3362 0.00948078)
(14.308 13.9505 -0.029469)
(10.8519 24.3848 -0.430875)
(0.000399751 0.00122759 -0.119478)
(0.00111779 0.0190687 -0.121457)
(0.000788961 0.0211632 -0.121692)
(0.00113811 0.000915489 -0.121437)
(4.70371 -5.94889 0.0196076)
(5.29086 -3.42828 0.00838562)
(5.03039 -2.02246 0.00245371)
(4.91787 -1.05543 -0.000148958)
(4.64306 -0.344379 -0.00032031)
(34.1749 1.51166 0.00348065)
(41.0484 4.67447 0.0137757)
(26.8633 7.49622 0.0197889)
(24.5949 11.1718 0.0206126)
(26.1582 16.906 -0.033799)
(22.6993 22.913 -0.0456829)
(6.67821 -11.9799 0.000461323)
(8.3783 -6.05559 0.0239489)
(7.10031 -3.83821 0.00695759)
(6.31045 -2.32008 0.00168652)
(5.86519 -1.22862 -9.87851e-05)
(5.45174 -0.403154 -0.000199853)
(35.8984 1.46345 0.00371375)
(44.127 4.54115 0.0129281)
(30.2454 7.22209 0.0190494)
(28.7698 10.5369 0.024219)
(31.5677 15.2684 0.0162262)
(34.8056 21.0614 -0.0613098)
(33.552 29.496 0.128289)
(30.9869 19.6317 -0.400528)
(20.4377 -9.22806 0.0566456)
(14.0771 -8.48039 0.0396451)
(11.0504 -5.81117 0.0187567)
(8.91855 -3.7504 0.00568821)
(7.61043 -2.3074 0.00147278)
(6.86565 -1.23915 0.000203633)
(6.3237 -0.409335 -3.97162e-05)
(37.4809 1.27778 0.00395705)
(46.8957 3.97525 0.0120697)
(33.0832 6.2618 0.0179668)
(31.8337 8.8715 0.0256308)
(35.0874 12.0832 0.026864)
(37.5325 15.4188 0.00708956)
(41.2553 16.7399 -0.0310793)
(40.9123 17.5048 0.00891611)
(50.2028 19.9096 -0.117378)
(48.8387 8.66486 0.0579796)
(46.7864 -0.0738541 -0.0107568)
(39.2344 -5.86246 -0.115531)
(30.1615 -10.6046 -0.0418116)
(21.234 -7.8156 0.027528)
(16.7018 -6.42498 0.0251518)
(12.9202 -4.66648 0.0112088)
(10.3686 -3.17996 0.00389131)
(8.74689 -2.02898 0.00171245)
(7.78767 -1.11307 0.000808808)
(7.14975 -0.371258 0.000258903)
(38.803 1.01643 0.00427457)
(49.1685 3.1719 0.0115863)
(35.2636 4.95582 0.0169131)
(33.9355 6.83952 0.0247626)
(37.2183 8.94784 0.0304568)
(39.0253 10.8853 0.0277983)
(40.8799 11.8255 0.0237389)
(43.108 10.6896 -0.00305058)
(44.1769 7.9913 0.00158543)
(43.0821 4.09397 0.0198166)
(39.4482 -0.153569 0.025889)
(34.1317 -3.37108 0.0296333)
(28.2577 -4.67489 0.0262828)
(22.6022 -5.07859 0.0170488)
(17.821 -4.39977 0.0131428)
(14.1125 -3.42257 0.00740392)
(11.4198 -2.43547 0.00401521)
(9.62273 -1.609 0.00263643)
(8.54791 -0.901817 0.00162492)
(7.85288 -0.303886 0.000574379)
(39.809 0.724051 0.00436331)
(50.8764 2.27172 0.0113375)
(36.8253 3.5386 0.0160801)
(35.3235 4.80018 0.0229122)
(38.4758 6.12718 0.0294238)
(39.7785 7.23699 0.0322357)
(40.7144 7.73148 0.0319986)
(41.4922 7.18343 0.0303841)
(41.3907 5.54175 0.0275512)
(39.7873 3.01114 0.0265553)
(36.6223 0.416073 0.0267143)
(32.2887 -1.52281 0.0246955)
(27.4106 -2.61434 0.0197175)
(22.6062 -2.99126 0.0146732)
(18.3119 -2.76335 0.0106351)
(14.7861 -2.26912 0.00742663)
(12.1033 -1.6868 0.00533256)
(10.2456 -1.14379 0.00385157)
(9.11659 -0.652077 0.00234806)
(8.39286 -0.221582 0.000839476)
(40.4766 0.425877 0.00443842)
(52.0055 1.34942 0.0111472)
(37.8211 2.10809 0.0154587)
(36.1493 2.83082 0.0211395)
(39.1644 3.56036 0.0268879)
(40.1326 4.13896 0.030632)
(40.5044 4.35773 0.0321467)
(40.5568 4.05024 0.0315255)
(39.8096 3.14052 0.029666)
(37.9655 1.83417 0.0278306)
(34.989 0.478667 0.0258794)
(31.1224 -0.60045 0.0228759)
(26.8074 -1.27015 0.0189872)
(22.4862 -1.54324 0.0149793)
(18.5106 -1.50094 0.0116873)
(15.1427 -1.28017 0.00899737)
(12.5057 -0.980336 0.00681875)
(10.6373 -0.677513 0.00487491)
(9.48889 -0.391164 0.00291938)
(8.75389 -0.133798 0.00102348)
(40.8009 0.138681 0.00445962)
(52.5568 0.444608 0.0109954)
(38.2877 0.699535 0.0150507)
(36.4995 0.936938 0.0198971)
(39.4301 1.17292 0.0248369)
(40.2356 1.35705 0.0284831)
(40.344 1.4225 0.0303303)
(40.0884 1.31794 0.0304059)
(39.0847 1.03217 0.0295083)
(37.1353 0.622556 0.0280504)
(34.2308 0.192407 0.0259192)
(30.5636 -0.157127 0.0231204)
(26.4746 -0.381729 0.0198267)
(22.3745 -0.478558 0.0162852)
(18.5612 -0.476464 0.0130269)
(15.2878 -0.41355 0.0103081)
(12.6896 -0.321045 0.00781928)
(10.827 -0.2239 0.00548739)
(9.67405 -0.130054 0.00324441)
(8.93501 -0.0446405 0.00114306)
(40.8125 -0.138709 0.011175)
(52.5796 -0.444676 0.030964)
(38.3113 -0.699637 0.0445924)
(36.523 -0.937001 0.0571169)
(39.4533 -1.17289 0.0687829)
(40.2575 -1.35679 0.0777792)
(40.3637 -1.42199 0.0837979)
(40.1056 -1.31745 0.0869009)
(39.0989 -1.0318 0.0872389)
(37.1461 -0.622472 0.0852935)
(34.2379 -0.192657 0.0809682)
(30.567 0.156516 0.0741882)
(26.4752 0.381015 0.0654369)
(22.373 0.477841 0.0557191)
(18.5584 0.475873 0.0457324)
(15.2843 0.413137 0.0359881)
(12.6857 0.320774 0.0267137)
(10.8231 0.22376 0.0182661)
(9.67011 0.130015 0.0104536)
(8.93108 0.044612 0.003563)
(40.4882 -0.425994 0.0111599)
(52.0285 -1.3495 0.0311202)
(37.8449 -2.10825 0.044879)
(36.1725 -2.83116 0.0573335)
(39.1875 -3.56073 0.0688129)
(40.1546 -4.13896 0.0778259)
(40.5242 -4.35755 0.0838961)
(40.5739 -4.0499 0.0870132)
(39.8238 -3.14028 0.0875475)
(37.9762 -1.83433 0.0855681)
(34.996 -0.47914 0.0808459)
(31.126 0.599376 0.0735713)
(26.8081 1.26866 0.0648072)
(22.4846 1.54171 0.0550296)
(18.5077 1.49955 0.0449966)
(15.1391 1.27922 0.0352944)
(12.5018 0.979644 0.0261334)
(10.6335 0.677093 0.0178595)
(9.48504 0.390885 0.0101994)
(8.75006 0.133712 0.00346813)
(39.8205 -0.72421 0.0111528)
(50.9002 -2.27202 0.0313565)
(36.8494 -3.53885 0.0454625)
(35.3466 -4.80032 0.0578771)
(38.499 -6.1268 0.0689442)
(39.8009 -7.23563 0.077526)
(40.7347 -7.73093 0.0830403)
(41.5105 -7.187 0.0858384)
(41.4071 -5.54311 0.086731)
(39.8008 -3.01221 0.0850539)
(36.6321 -0.416337 0.0805804)
(32.2942 1.52286 0.0732971)
(27.4121 2.61249 0.063895)
(22.6048 2.98849 0.0537735)
(18.3092 2.76081 0.0435755)
(14.7825 2.26742 0.0340555)
(12.0994 1.68553 0.0249216)
(10.2418 1.14297 0.0169607)
(9.1129 0.651701 0.00968172)
(8.38922 0.221473 0.00332432)
(38.8147 -1.0167 0.0112031)
(49.1931 -3.17197 0.0319307)
(35.2883 -4.95582 0.0465707)
(33.9591 -6.83943 0.0590798)
(37.2425 -8.94676 0.0704523)
(39.0494 -10.8834 0.0794624)
(40.9027 -11.8281 0.0831745)
(43.1245 -10.7292 0.0859168)
(44.204 -8.02252 0.0876539)
(43.1044 -4.10197 0.0853484)
(39.4676 0.15759 0.0801921)
(34.1438 3.37383 0.0728023)
(28.263 4.67737 0.0625657)
(22.6045 5.07573 0.0506437)
(17.8201 4.39627 0.0406631)
(14.1094 3.42024 0.0319366)
(11.4159 2.43375 0.0230675)
(9.61913 1.6079 0.0156092)
(8.54447 0.901195 0.00893987)
(7.84952 0.303674 0.00307147)
(37.4927 -1.27808 0.0111225)
(46.9213 -3.97512 0.0328182)
(33.1088 -6.26186 0.0481547)
(31.8589 -8.87285 0.061013)
(35.1142 -12.0872 0.0747134)
(37.5661 -15.4451 0.0885308)
(41.2819 -16.8117 0.0954251)
(45.0431 -18.3824 0.104483)
(48.0006 -14.1209 0.199108)
(49.2476 -8.31415 0.114221)
(44.8919 -1.66856 0.0875814)
(37.907 2.79099 0.070258)
(29.5559 4.47074 0.0644361)
(21.2345 7.83395 0.0407912)
(16.7075 6.43448 0.0332513)
(12.9187 4.6667 0.0279297)
(10.3653 3.17887 0.0203856)
(8.74363 2.02788 0.0139101)
(7.78456 1.11236 0.00797352)
(7.14674 0.370991 0.00273216)
(35.9105 -1.46364 0.0111351)
(44.1531 -4.54084 0.0339893)
(30.2711 -7.22225 0.0497551)
(28.7945 -10.5421 0.0622764)
(31.5942 -15.294 0.079108)
(34.8453 -21.1502 0.0971797)
(40.1141 -26.384 0.04317)
(45.9483 -27.2048 0.129522)
(37.8864 -15.0092 0.0719322)
(29.2927 8.95085 0.0526431)
(21.2146 8.858 0.0494787)
(14.0803 8.50656 0.0254113)
(11.0516 5.82002 0.0226633)
(8.91517 3.75102 0.0178686)
(7.60728 2.30664 0.0121638)
(6.86282 1.23847 0.00692628)
(6.32104 0.409086 0.0023773)
(34.1874 -1.51179 0.0113113)
(41.0752 -4.67386 0.0357589)
(26.8872 -7.49528 0.0520951)
(24.6191 -11.182 0.0615873)
(26.1776 -16.9771 0.0846943)
(29.1444 -25.1225 0.0698445)
(26.1882 -25.996 0.0798192)
(13.0873 10.366 0.0346115)
(8.37393 6.05898 0.0186376)
(7.09673 3.83828 0.0152732)
(6.30742 2.31923 0.0104059)
(5.8626 1.228 0.00585727)
(5.44938 0.402927 0.00201556)
(32.5194 -1.35797 0.0115553)
(38.0223 -4.16981 0.0379837)
(23.2915 -6.76172 0.0563131)
(20.114 -10.3654 0.0589141)
(21.7992 -17.4316 0.0458012)
(21.0611 -26.7768 0.124463)
(0.000419316 0.000292899 -0.608013)
(0.00104192 -0.000439906 -0.608122)
(5.52556 9.32878 0.0158212)
(6.06242 5.34444 0.017435)
(5.2881 3.43019 0.0113699)
(5.02765 2.02252 0.00849981)
(4.91547 1.05506 0.00488075)
(4.64094 0.344197 0.00169648)
(31.1657 -0.965581 0.0117281)
(35.4724 -2.9351 0.0395049)
(20.039 -4.7852 0.0576542)
(15.3964 -7.72106 0.0653645)
(14.546 -12.8451 0.0223433)
(8.12206 -17.3605 0.194311)
(-0.0010006 -0.0019902 -0.609717)
(0.0098657 0.00646903 -0.738328)
(-0.00716512 0.00674434 -0.737795)
(0.0795296 -0.00309035 -0.609406)
(0.00176299 0.000986848 -0.608542)
(4.11226 5.69408 0.0106808)
(3.70385 2.38388 0.00836726)
(3.99966 1.38556 0.00702793)
(4.17172 0.715975 0.00416591)
(4.01482 0.232807 0.00148374)
(30.3909 -0.3551 0.0118946)
(34.0086 -1.07463 0.0402572)
(18.0844 -1.75004 0.058612)
(12.3839 -2.83041 0.0671713)
(9.47138 -5.98561 0.0332376)
(0.000771784 -5.08317e-05 -0.608656)
(0.00760837 0.00835861 -0.738998)
(0.000250093 -0.00132405 -0.739743)
(0.00273857 -0.0011866 -0.73901)
(-0.00560532 0.00868978 -0.737314)
(0.0710162 0.00214052 -0.609182)
(0.92767 2.7065 0.0124874)
(2.78667 0.838803 0.00717139)
(3.41797 0.485964 0.00624663)
(3.76073 0.251712 0.00378578)
(3.67231 0.0819797 0.00137089)
(30.3909 0.355153 0.0118941)
(34.0086 1.07476 0.0402586)
(18.0843 1.75015 0.0586108)
(12.3839 2.83049 0.0671587)
(7.79283 2.59073 0.0468101)
(-0.000133053 -0.000135708 -0.610018)
(0.00765793 -0.00833171 -0.738872)
(0.000256485 0.00131252 -0.739775)
(0.00278535 0.00120707 -0.738965)
(-0.0055801 -0.00862115 -0.737054)
(0.0802826 -0.00164526 -0.609295)
(0.618053 -0.915136 0.0123527)
(2.78669 -0.838805 0.0071667)
(3.41797 -0.485973 0.00622789)
(3.76073 -0.251714 0.00377333)
(3.67231 -0.0819759 0.00137029)
(31.1657 0.965604 0.0117285)
(35.4725 2.93516 0.0395079)
(20.039 4.78524 0.0576519)
(15.3964 7.72107 0.0653751)
(10.9381 10.2836 0.0332846)
(-0.00264936 0.0789435 -0.610593)
(0.00987498 -0.00648792 -0.73841)
(-0.00712075 -0.00672353 -0.737783)
(0.0782208 0.0766365 -0.610937)
(0.00204361 -1.39912e-05 -0.609106)
(1.74486 -4.26082 0.0130206)
(3.70392 -2.38395 0.00834624)
(3.99966 -1.38559 0.00699542)
(4.17172 -0.715982 0.00414213)
(4.01482 -0.232808 0.00148275)
(32.5195 1.35796 0.0115582)
(38.0223 4.16978 0.0379906)
(23.2915 6.76166 0.0563263)
(20.1139 10.3653 0.0589449)
(17.3693 14.7354 0.0290139)
(11.119 24.5835 0.183447)
(0.000988823 0.00199486 -0.609609)
(0.00290884 0.0709533 -0.610311)
(-0.000462215 0.0795764 -0.610006)
(0.00125775 0.00151446 -0.609269)
(4.71583 -5.97312 0.0130963)
(5.28826 -3.43022 0.0113426)
(5.02771 -2.02253 0.00848272)
(4.9155 -1.05507 0.00487465)
(4.64095 -0.344201 0.00169088)
(34.1874 1.51175 0.0113159)
(41.0752 4.67376 0.0357705)
(26.8872 7.49517 0.0521114)
(24.619 11.1819 0.0616093)
(26.1775 16.9769 0.08473)
(24.9324 24.0611 0.0323364)
(6.60694 -12.0173 0.0259289)
(8.37411 -6.05884 0.0186266)
(7.09674 -3.83824 0.0152727)
(6.30745 -2.31923 0.0104221)
(5.86263 -1.22801 0.0058615)
(5.4494 -0.402933 0.00201568)
(35.9105 1.4636 0.0111403)
(44.1531 4.54071 0.0340014)
(30.271 7.22212 0.0497734)
(28.7944 10.542 0.0622957)
(31.5941 15.2938 0.0791705)
(34.846 21.1507 0.0972573)
(35.7642 30.6471 -0.0218453)
(31.6081 19.9437 0.174358)
(20.4736 -9.14919 0.0376287)
(14.0801 -8.50621 0.0254626)
(11.0514 -5.81996 0.0226625)
(8.91512 -3.751 0.0178896)
(7.60728 -2.30663 0.0121693)
(6.86285 -1.23847 0.00693397)
(6.32106 -0.409092 0.00237754)
(37.4927 1.27805 0.0111269)
(46.9212 3.97502 0.0328302)
(33.1087 6.26176 0.0481698)
(31.8589 8.87279 0.0610291)
(35.1143 12.0872 0.074765)
(37.5661 15.4452 0.0886323)
(41.2821 16.8113 0.0954881)
(44.1935 18.9833 0.0330388)
(50.7197 19.9467 0.124657)
(49.0131 8.55098 0.0981449)
(46.8724 -0.088214 0.070063)
(39.2551 -5.7583 0.0626823)
(30.1817 -10.7022 0.0434606)
(21.2345 -7.83416 0.0408762)
(16.7073 -6.43467 0.0333871)
(12.9186 -4.66676 0.0279652)
(10.3652 -3.17887 0.020398)
(8.74363 -2.02788 0.0139036)
(7.78458 -1.11236 0.00797409)
(7.14676 -0.370995 0.0027323)
(38.8147 1.01668 0.0112064)
(49.1931 3.17191 0.0319393)
(35.2883 4.95578 0.0465841)
(33.9591 6.83942 0.0590957)
(37.2426 8.94678 0.0704772)
(39.0495 10.8834 0.0795012)
(40.9027 11.828 0.083228)
(43.1245 10.7292 0.0859803)
(44.2041 8.02307 0.0876974)
(43.1045 4.10231 0.0853996)
(39.4676 -0.157495 0.080222)
(34.1438 -3.37403 0.0728674)
(28.263 -4.67747 0.0625397)
(22.6045 -5.07575 0.0506229)
(17.82 -4.3963 0.040659)
(14.1093 -3.42028 0.0319385)
(11.4159 -2.43375 0.02307)
(9.61912 -1.60789 0.0156084)
(8.54449 -0.901194 0.00893392)
(7.84954 -0.303675 0.00307132)
(39.8205 0.724202 0.0111551)
(50.9001 2.272 0.0313639)
(36.8493 3.53883 0.0454726)
(35.3466 4.80032 0.0578917)
(38.4991 6.12681 0.0689634)
(39.801 7.23561 0.0775515)
(40.7347 7.73088 0.0830733)
(41.5105 7.18698 0.0858829)
(41.4071 5.5432 0.086798)
(39.8008 3.01218 0.085137)
(36.6321 0.416308 0.0806454)
(32.2943 -1.5229 0.0733067)
(27.4121 -2.61257 0.0638747)
(22.6048 -2.98855 0.0536346)
(18.3092 -2.76079 0.0434991)
(14.7824 -2.26738 0.0340962)
(12.0994 -1.68549 0.0249687)
(10.2418 -1.14297 0.0169571)
(9.11291 -0.651695 0.00969004)
(8.38924 -0.221473 0.0033316)
(40.4881 0.425991 0.0111617)
(52.0284 1.34949 0.0311258)
(37.8448 2.10825 0.0448888)
(36.1725 2.83116 0.0573462)
(39.1876 3.56072 0.0688298)
(40.1546 4.13894 0.0778478)
(40.5242 4.35752 0.0839236)
(40.5739 4.04988 0.0870444)
(39.8238 3.14033 0.0875943)
(37.9762 1.83437 0.0856216)
(34.996 0.47916 0.0808833)
(31.126 -0.599391 0.0735985)
(26.8081 -1.26867 0.0648293)
(22.4847 -1.54176 0.0549907)
(18.5077 -1.49962 0.0449406)
(15.1391 -1.27925 0.0353389)
(12.5018 -0.979678 0.0261685)
(10.6335 -0.677089 0.0178636)
(9.48504 -0.390881 0.0102088)
(8.75008 -0.133711 0.00347579)
(40.8124 0.138708 0.0111765)
(52.5795 0.444676 0.03097)
(38.3113 0.699637 0.0446015)
(36.5231 0.937001 0.0571296)
(39.4534 1.17289 0.0687982)
(40.2575 1.35678 0.0777988)
(40.3638 1.42198 0.0838219)
(40.1056 1.31744 0.0869287)
(39.0989 1.03181 0.0872683)
(37.1461 0.622477 0.0853233)
(34.2379 0.192661 0.0809963)
(30.5671 -0.156523 0.0742135)
(26.4752 -0.381026 0.0654577)
(22.373 -0.477837 0.0557325)
(18.5584 -0.475868 0.0457402)
(15.2842 -0.413129 0.0359853)
(12.6857 -0.320767 0.026718)
(10.8231 -0.223759 0.0182669)
(9.67011 -0.130013 0.0104543)
(8.9311 -0.0446111 0.00356304)
(40.8264 -0.138699 0.016889)
(52.5957 -0.444514 0.0493993)
(38.3231 -0.699261 0.0751583)
(36.5318 -0.936434 0.0987306)
(39.4589 -1.17213 0.119764)
(40.2594 -1.35601 0.135956)
(40.3624 -1.42135 0.146435)
(40.1014 -1.31698 0.151444)
(39.0927 -1.03159 0.151557)
(37.1382 -0.622352 0.146931)
(34.2284 -0.192653 0.138093)
(30.5565 0.156388 0.125397)
(26.464 0.380701 0.110217)
(22.3619 0.477361 0.0935577)
(18.5479 0.47535 0.0765014)
(15.2746 0.412669 0.0601397)
(12.677 0.320425 0.0445701)
(10.8151 0.223523 0.0304712)
(9.66264 0.129872 0.0175665)
(8.9238 0.0445773 0.00605496)
(40.5023 -0.425856 0.0170503)
(52.0449 -1.34886 0.050036)
(37.8569 -2.10712 0.0761886)
(36.1813 -2.82964 0.0998874)
(39.193 -3.55896 0.12074)
(40.1564 -4.13728 0.13652)
(40.5229 -4.3564 0.146791)
(40.57 -4.04947 0.151827)
(39.8179 -3.14014 0.151706)
(37.9686 -1.8341 0.14697)
(34.9867 -0.478917 0.137898)
(31.1154 0.599407 0.124784)
(26.7969 1.26806 0.109127)
(22.4735 1.54055 0.0922423)
(18.4973 1.4982 0.0752683)
(15.1296 1.27798 0.0590531)
(12.4932 0.978645 0.0436177)
(10.6257 0.676415 0.0297762)
(9.47774 0.390508 0.0171579)
(8.74295 0.133572 0.00592224)
(39.8349 -0.724016 0.0175133)
(50.9174 -2.27103 0.0515968)
(36.8618 -3.537 0.0783487)
(35.3552 -4.79785 0.102076)
(38.504 -6.12418 0.122747)
(39.8022 -7.23403 0.137906)
(40.733 -7.73113 0.147255)
(41.5073 -7.18828 0.151418)
(41.4028 -5.54487 0.151213)
(39.7947 -3.01252 0.146902)
(36.6239 -0.415497 0.137868)
(32.2842 1.5242 0.124507)
(27.4009 2.61275 0.107437)
(22.5937 2.98699 0.0894219)
(18.299 2.75862 0.0723232)
(14.7732 2.26539 0.0565088)
(12.091 1.68379 0.0416009)
(10.2343 1.14179 0.028386)
(9.10593 0.651027 0.0163371)
(8.38244 0.221256 0.00559887)
(38.8296 -1.01643 0.0180199)
(49.2111 -3.17054 0.0536719)
(35.3011 -4.95334 0.0815501)
(33.9676 -6.83666 0.105568)
(37.2467 -8.9449 0.126463)
(39.0498 -10.8853 0.141533)
(40.8999 -11.831 0.149063)
(43.1236 -10.7204 0.149641)
(44.2019 -8.01544 0.148585)
(43.1012 -4.0971 0.146993)
(39.461 0.15896 0.139042)
(34.134 3.37323 0.125076)
(28.2513 4.67658 0.105944)
(22.5928 5.07407 0.0850137)
(17.8108 4.39445 0.0669982)
(14.1009 3.41785 0.0522128)
(11.4081 2.43146 0.038254)
(9.61219 1.60632 0.0261644)
(8.53803 0.900289 0.01502)
(7.84325 0.303377 0.00517161)
(37.5082 -1.27773 0.0187133)
(46.94 -3.97335 0.0562187)
(33.1216 -6.25924 0.0854381)
(31.8668 -8.8712 0.109959)
(35.1167 -12.0898 0.1316)
(37.5637 -15.4534 0.144829)
(41.2841 -16.8096 0.151977)
(45.0699 -18.3995 0.16191)
(47.9813 -14.1299 0.150385)
(49.2464 -8.31837 0.138824)
(44.886 -1.67099 0.133581)
(37.9027 2.78973 0.125741)
(29.5503 4.46987 0.104196)
(21.2234 7.83339 0.0759401)
(16.6985 6.43352 0.0595373)
(12.9115 4.66503 0.0459469)
(10.3584 3.17672 0.0334304)
(8.73754 2.02615 0.023106)
(7.77882 1.11132 0.0133384)
(7.14112 0.370647 0.00464126)
(35.9268 -1.46322 0.0196312)
(44.1723 -4.53898 0.0591528)
(30.2832 -7.2199 0.0893236)
(28.8003 -10.5424 0.113619)
(31.5917 -15.2988 0.133067)
(34.8413 -21.1479 0.13848)
(40.1388 -26.414 0.100809)
(45.9284 -27.1853 0.123623)
(37.8831 -15.0063 0.121802)
(29.2857 8.94221 0.0880606)
(21.2044 8.85571 0.0816807)
(14.0712 8.50302 0.0525192)
(11.045 5.81722 0.0391881)
(8.90945 3.74913 0.0285749)
(7.60196 2.30493 0.0196944)
(6.85783 1.23743 0.0114352)
(6.31613 0.408747 0.0040122)
(34.2047 -1.51131 0.0207366)
(41.0943 -4.67206 0.0620693)
(26.8977 -7.49328 0.0931926)
(24.621 -11.1832 0.116402)
(26.1777 -16.9743 0.131374)
(29.1538 -25.1426 0.11164)
(26.1434 -25.9804 0.105516)
(13.0797 10.3565 0.0493982)
(8.36839 6.05612 0.0321537)
(7.092 3.83559 0.0232524)
(6.30305 2.31749 0.0160585)
(5.8584 1.22701 0.00944472)
(5.44518 0.402616 0.00337295)
(32.5377 -1.35753 0.0219693)
(38.041 -4.16849 0.0649331)
(23.2993 -6.76079 0.0977899)
(20.1158 -10.3689 0.120422)
(21.8144 -17.4461 0.0999155)
(21.0457 -26.7604 0.123503)
(0.000858613 0.000627302 -1.10604)
(0.00118168 -0.000743329 -1.10684)
(5.51954 9.3226 0.0325353)
(6.058 5.34085 0.0282205)
(5.2842 3.42849 0.0178534)
(5.02437 2.02128 0.0123866)
(4.91209 1.05432 0.0074788)
(4.63739 0.343968 0.00278352)
(31.1848 -0.965315 0.0228515)
(35.4901 -2.93458 0.0669304)
(20.0437 -4.78535 0.101075)
(15.3942 -7.72372 0.123322)
(14.5582 -12.8532 0.106112)
(8.13118 -17.3542 0.123722)
(-0.00176818 -0.0033755 -1.10944)
(0.00992646 0.00346741 -1.24612)
(-0.00612115 0.00389294 -1.24489)
(0.139022 -0.00534407 -1.10849)
(0.00310387 0.00148993 -1.10495)
(4.11081 5.69205 0.0213743)
(3.70054 2.38285 0.014161)
(3.99708 1.38481 0.0096094)
(4.16896 0.715516 0.0059473)
(4.0118 0.232671 0.00233513)
(30.4104 -0.355017 0.0232371)
(34.0254 -1.07458 0.0678138)
(18.0873 -1.75021 0.102772)
(12.381 -2.83126 0.12427)
(9.48229 -5.98446 0.106225)
(0.00102341 -0.000543133 -1.10742)
(0.00512565 0.00783147 -1.2473)
(-0.000815315 -0.00304037 -1.25092)
(0.00505872 -0.00285072 -1.24951)
(-0.00223481 0.00822223 -1.24396)
(0.124462 0.00364642 -1.10691)
(0.925137 2.70556 0.0170641)
(2.78357 0.838517 0.0124839)
(3.41564 0.485703 0.00821646)
(3.75827 0.251558 0.00515814)
(3.66956 0.0819364 0.00211092)
(30.4104 0.35507 0.0232373)
(34.0254 1.07471 0.0678078)
(18.0873 1.75031 0.10278)
(12.381 2.83134 0.124304)
(7.8022 2.58911 0.1121)
(-0.000674641 0.000193665 -1.10829)
(0.00507562 -0.00777612 -1.24707)
(-0.000862107 0.00305843 -1.25093)
(0.0050552 0.00286158 -1.24955)
(-0.0022882 -0.0081709 -1.24369)
(0.140708 -0.00295929 -1.10741)
(0.615938 -0.914848 0.0160663)
(2.78359 -0.838531 0.0124734)
(3.41564 -0.485709 0.00823449)
(3.75827 -0.251557 0.00517471)
(3.66955 -0.0819312 0.0021115)
(31.1848 0.96534 0.0228515)
(35.4901 2.93465 0.0669261)
(20.0437 4.7854 0.101095)
(15.3942 7.72371 0.123351)
(10.9497 10.2858 0.11117)
(-0.00480482 0.138391 -1.11075)
(0.00990062 -0.00349281 -1.24615)
(-0.00608638 -0.00386471 -1.24504)
(0.136708 0.134602 -1.11215)
(0.00329306 -0.000207466 -1.10692)
(1.74177 -4.26 0.0189838)
(3.70062 -2.38291 0.0141501)
(3.9971 -1.38484 0.00962631)
(4.16897 -0.715518 0.00597928)
(4.01179 -0.232661 0.00235262)
(32.5378 1.35752 0.0219742)
(38.0411 4.16846 0.0649441)
(23.2992 6.76074 0.0978086)
(20.1157 10.3688 0.120466)
(17.3857 14.7487 0.110741)
(11.0984 24.5704 0.130624)
(0.00174384 0.00292325 -1.10819)
(0.0047239 0.1245 -1.10921)
(-0.00128462 0.139911 -1.10886)
(0.00205686 0.00262701 -1.10742)
(4.71252 -5.97266 0.0241866)
(5.28437 -3.42852 0.0178746)
(5.02444 -2.02126 0.0123936)
(4.91211 -1.05432 0.00750408)
(4.6374 -0.343988 0.00279867)
(34.2047 1.51127 0.020744)
(41.0943 4.67197 0.0620881)
(26.8977 7.49317 0.0932176)
(24.621 11.1832 0.116436)
(26.1776 16.9742 0.131414)
(24.9452 24.0701 0.124698)
(6.59559 -12.0135 0.0388087)
(8.36858 -6.05597 0.0321795)
(7.09199 -3.83554 0.0232439)
(6.30309 -2.3175 0.0160654)
(5.85843 -1.22703 0.00945118)
(5.44519 -0.402619 0.00337398)
(35.9268 1.46318 0.0196391)
(44.1723 4.53886 0.0591753)
(30.2832 7.21977 0.0893533)
(28.8003 10.5423 0.113657)
(31.5916 15.2986 0.133118)
(34.842 21.1484 0.13852)
(35.7821 30.6712 0.118819)
(31.6055 19.9274 0.123707)
(20.4679 -9.13874 0.0673785)
(14.0711 -8.50264 0.0525296)
(11.0447 -5.81715 0.0392319)
(8.90939 -3.74911 0.0285742)
(7.60197 -2.30493 0.0196836)
(6.85785 -1.23743 0.0114392)
(6.31615 -0.408753 0.00401291)
(37.5082 1.2777 0.01872)
(46.9399 3.97325 0.0562376)
(33.1215 6.25915 0.0854655)
(31.8667 8.87114 0.109996)
(35.1168 12.0898 0.131626)
(37.5637 15.4534 0.144877)
(41.2843 16.8092 0.152033)
(44.2131 18.9964 0.133659)
(50.7069 19.9656 0.137156)
(49.0056 8.54898 0.130138)
(46.8644 -0.0904557 0.121373)
(39.246 -5.75827 0.107483)
(30.1723 -10.7072 0.0904236)
(21.2234 -7.83362 0.0758534)
(16.6984 -6.43374 0.059492)
(12.9114 -4.6651 0.0459579)
(10.3584 -3.17672 0.0334385)
(8.73754 -2.02614 0.0231187)
(7.77884 -1.11132 0.0133408)
(7.14114 -0.370651 0.00464158)
(38.8296 1.01641 0.0180248)
(49.2111 3.17048 0.0536876)
(35.3011 4.9533 0.0815718)
(33.9676 6.83665 0.105597)
(37.2467 8.94494 0.126499)
(39.0498 10.8852 0.141579)
(40.9 11.8309 0.14913)
(43.1236 10.7203 0.149717)
(44.2019 8.01596 0.148695)
(43.1013 4.0974 0.147098)
(39.461 -0.158903 0.139107)
(34.134 -3.37342 0.125175)
(28.2513 -4.67672 0.106026)
(22.5927 -5.07408 0.0851081)
(17.8107 -4.39444 0.0670575)
(14.1008 -3.41788 0.0522223)
(11.408 -2.43146 0.0382591)
(9.61219 -1.60631 0.0261702)
(8.53804 -0.900288 0.0150285)
(7.84328 -0.303378 0.00517205)
(39.8349 0.724007 0.0175168)
(50.9173 2.271 0.0516077)
(36.8618 3.53698 0.0783664)
(35.3553 4.79785 0.102099)
(38.5041 6.12419 0.122778)
(39.8022 7.23401 0.137945)
(40.733 7.73106 0.147305)
(41.5072 7.18824 0.151482)
(41.4028 5.54494 0.151263)
(39.7947 3.01246 0.14695)
(36.624 0.415472 0.137945)
(32.2843 -1.52424 0.124555)
(27.4009 -2.61277 0.107503)
(22.5937 -2.98708 0.0895374)
(18.299 -2.75869 0.0724237)
(14.7732 -2.26535 0.0564801)
(12.091 -1.68375 0.0415626)
(10.2343 -1.14179 0.0283889)
(9.10594 -0.65102 0.0163396)
(8.38247 -0.221255 0.00559995)
(40.5022 0.425853 0.0170527)
(52.0448 1.34885 0.0500456)