/*--------------------------------*- C++ -*----------------------------------*\
  =========                 |
  \\      /  F ield         | OpenFOAM: The Open Source CFD Toolbox
   \\    /   O peration     | Website:  https://openfoam.org
    \\  /    A nd           | Version:  11
     \\/     M anipulation  |
\*---------------------------------------------------------------------------*/
FoamFile
{
    format      ascii;
    class       volScalarField;
    location    "0.0001";
    object      p;
}
// * * * * * * * * * * * * * * * * * * * * * * * * * * * * * * * * * * * * * //

dimensions      [1 -1 -2 0 0 0 0];

internalField   nonuniform List<scalar> 
21740
(
122448
117982
114419
111604
109398
107674
106329
105279
104462
103832
103359
103021
102800
102687
102674
102761
102954
103265
103716
104339
122452
117995
114440
111635
109436
107719
106376
105322
104496
103856
103372
103026
102802
102687
102673
102760
102953
103265
103716
104339
122460
118021
114485
111699
109518
107815
106478
105416
104570
103903
103397
103035
102803
102685
102671
102759
102952
103265
103716
104339
122472
118061
114555
111801
109653
107978
106656
105579
104694
103976
103425
103038
102797
102678
102667
102756
102951
103264
103716
104339
122489
118116
114654
111951
109858
108235
106952
106043
105067
104231
103572
103111
102829
102663
102660
102754
102951
103265
103717
104339
122510
118185
114785
112161
110166
108646
107592
106452
105410
102779
102664
102655
102755
102953
103267
103718
104339
122533
118266
114946
112442
110617
109441
108334
102651
102767
102962
103271
103720
104340
122555
118344
115108
112743
111400
110235
101350
101350
102691
102762
102974
103277
103723
104340
122572
118406
115241
112996
111877
111127
101350
101350
101350
101350
101350
102801
102987
103283
103725
104341
122582
118442
115322
113169
112243
101350
101350
101350
101350
101350
101350
102845
102998
103287
103726
104341
122582
118442
115322
113169
112338
101350
101350
101350
101350
101350
101350
102857
102998
103287
103726
104341
122572
118406
115241
112996
112086
101350
101350
101350
101350
101350
102824
102987
103283
103725
104341
122555
118344
115108
112743
111662
110699
101350
101350
101350
101350
102782
102974
103277
103723
104340
122533
118266
114946
112442
110617
109835
102667
102767
102962
103271
103720
104340
122510
118185
114785
112161
110166
108646
107894
106816
102651
102655
102755
102953
103267
103718
104339
122489
118116
114654
111951
109858
108235
106952
106229
105178
104289
103574
103098
102809
102663
102660
102754
102951
103265
103717
104339
122472
118061
114555
111801
109653
107978
106656
105578
104694
103976
103425
103038
102797
102678
102667
102756
102951
103264
103716
104339
122460
118021
114485
111699
109518
107815
106478
105416
104570
103903
103397
103035
102803
102685
102671
102759
102952
103264
103716
104339
122452
117995
114441
111635
109436
107719
106376
105322
104496
103856
103372
103026
102802
102687
102673
102760
102953
103265
103716
104339
122448
117982
114419
111604
109398
107674
106329
105279
104462
103832
103359
103021
102800
102687
102674
102761
102954
103265
103716
104339
122448
117982
114419
111604
109398
107674
106329
105279
104461
103832
103359
103021
102800
102687
102674
102761
102953
103265
103716
104339
122452
117995
114441
111635
109436
107719
106376
105322
104496
103855
103372
103026
102802
102687
102673
102760
102953
103265
103716
104339
122460
118021
114486
111699
109518
107815
106478
105416
104570
103903
103397
103035
102803
102685
102671
102759
102952
103265
103716
104339
122473
118061
114556
111801
109653
107977
106656
105578
104694
103976
103425
103038
102797
102678
102667
102756
102951
103264
103716
104339
122489
118116
114655
111951
109857
108234
106950
106042
105067
104232
103572
103111
102829
102663
102660
102754
102951
103265
103717
104339
122510
118186
114786
112161
110163
108643
107590
106454
105412
102779
102664
102654
102754
102953
103267
103718
104339
122534
118267
114946
112441
110614
109438
108334
102651
102767
102962
103271
103720
104340
122556
118345
115107
112740
111396
110232
101350
101350
102691
102762
102974
103277
103723
104340
122573
118407
115239
112991
111871
111125
101350
101351
101351
101350
101350
102800
102986
103282
103725
104341
122582
118442
115320
113163
112236
101350
101351
101351
101351
101351
101350
102845
102998
103286
103726
104341
122582
118442
115320
113163
112333
101350
101351
101351
101351
101351
101350
102857
102998
103286
103726
104341
122573
118407
115239
112991
112079
101350
101351
101351
101350
101350
102824
102986
103282
103725
104341
122556
118345
115107
112740
111657
110698
101350
101350
101350
101350
102782
102974
103277
103723
104340
122534
118267
114946
112441
110614
109832
102667
102767
102962
103271
103720
104340
122510
118186
114786
112161
110163
108643
107893
106816
102651
102654
102754
102953
103267
103718
104339
122489
118116
114655
111951
109857
108234
106950
106228
105181
104289
103574
103097
102809
102663
102660
102754
102951
103265
103717
104339
122473
118061
114556
111801
109653
107977
106656
105578
104694
103976
103425
103038
102797
102678
102667
102756
102951
103264
103716
104339
122460
118021
114486
111699
109518
107815
106478
105416
104570
103903
103397
103035
102803
102685
102671
102759
102952
103265
103716
104339
122452
117995
114441
111635
109436
107719
106376
105322
104496
103855
103372
103026
102802
102687
102673
102760
102953
103265
103716
104339
122448
117982
114419
111604
109398
107674
106329
105279
104461
103832
103359
103021
102800
102687
102674
102761
102953
103265
103716
104339
122448
117982
114419
111604
109397
107674
106328
105278
104461
103832
103359
103020
102800
102687
102674
102761
102953
103265
103716
104339
122452
117995
114441
111635
109436
107718
106375
105321
104496
103855
103372
103026
102802
102686
102673
102760
102953
103265
103716
104339
122460
118021
114485
111699
109518
107814
106477
105415
104569
103903
103396
103034
102802
102685
102671
102759
102952
103264
103716
104339
122473
118061
114556
111801
109652
107977
106655
105578
104694
103976
103425
103038
102797
102678
102667
102756
102951
103264
103716
104339
122489
118116
114654
111950
109856
108233
106950
106042
105067
104232
103572
103111
102829
102663
102659
102753
102951
103265
103717
104339
122510
118186
114785
112160
110162
108643
107589
106453
105412
102779
102664
102654
102754
102953
103267
103718
104339
122534
118266
114945
112440
110613
109437
108333
102651
102767
102962
103271
103720
104340
122556
118344
115106
112738
111394
110231
101352
101352
102691
102761
102974
103277
103723
104340
122572
118406
115237
112989
111869
111125
101352
101353
101353
101352
101352
102800
102986
103282
103724
104341
122582
118441
115318
113161
112235
101352
101353
101353
101353
101353
101352
102845
102997
103286
103726
104341
122582
118441
115318
113161
112331
101352
101353
101353
101353
101353
101352
102857
102997
103286
103726
104341
122572
118406
115237
112989
112078
101352
101353
101353
101352
101352
102824
102986
103282
103724
104341
122556
118344
115106
112738
111655
110697
101352
101352
101352
101352
102781
102974
103277
103723
104340
122534
118266
114945
112440
110613
109831
102667
102767
102962
103271
103720
104340
122510
118186
114785
112160
110162
108643
107893
106815
102650
102654
102754
102953
103267
103718
104339
122489
118116
114654
111950
109856
108233
106950
106227
105181
104289
103574
103096
102809
102663
102659
102753
102951
103265
103717
104339
122473
118061
114556
111801
109652
107977
106655
105578
104693
103976
103425
103038
102797
102678
102667
102756
102951
103264
103716
104339
122460
118021
114485
111699
109518
107814
106477
105415
104569
103903
103396
103035
102802
102685
102671
102759
102952
103264
103716
104339
122452
117995
114441
111635
109436
107718
106375
105321
104496
103855
103372
103026
102802
102686
102673
102760
102953
103265
103716
104339
122448
117982
114419
111604
109397
107674
106328
105278
104461
103832
103359
103020
102800
102687
102674
102761
102953
103265
103716
104339
122448
117982
114418
111604
109397
107673
106328
105278
104461
103831
103358
103020
102800
102686
102674
102761
102953
103265
103716
104339
122452
117995
114440
111635
109436
107718
106375
105321
104495
103855
103372
103026
102801
102686
102673
102760
102953
103265
103716
104339
122460
118021
114485
111698
109517
107814
106477
105415
104569
103903
103396
103034
102802
102684
102671
102758
102952
103264
103716
104339
122472
118061
114555
111800
109651
107975
106654
105577
104693
103976
103424
103037
102797
102678
102666
102756
102951
103264
103716
104339
122489
118116
114653
111948
109855
108231
106949
106041
105066
104231
103571
103110
102829
102663
102659
102753
102950
103264
103717
104339
122510
118185
114783
112158
110160
108642
107588
106453
105412
102779
102663
102654
102754
102953
103266
103718
104339
122533
118265
114943
112437
110611
109436
108333
102650
102767
102961
103271
103720
104340
122555
118342
115103
112736
111393
110230
101355
101355
102690
102761
102974
103276
103722
104340
122571
118403
115234
112987
111868
111125
101355
101356
101356
101355
101355
102800
102986
103282
103724
104340
122580
118438
115313
113159
112234
101355
101356
101356
101356
101356
101355
102845
102997
103286
103725
104341
122580
118438
115313
113159
112330
101355
101356
101356
101356
101356
101355
102857
102997
103286
103725
104341
122571
118403
115234
112987
112077
101355
101356
101356
101355
101355
102824
102986
103282
103724
104340
122555
118342
115103
112736
111654
110696
101355
101355
101355
101355
102781
102974
103276
103722
104340
122533
118265
114943
112437
110611
109830
102667
102767
102961
103271
103720
104340
122510
118185
114783
112158
110160
108642
107892
106815
102650
102654
102754
102953
103266
103718
104339
122489
118116
114653
111948
109855
108231
106949
106227
105181
104289
103573
103096
102809
102663
102659
102753
102950
103264
103717
104339
122472
118061
114555
111800
109651
107975
106654
105577
104693
103976
103425
103037
102797
102678
102666
102756
102951
103264
103716
104339
122460
118021
114485
111698
109517
107813
106477
105415
104569
103903
103396
103034
102802
102684
102671
102758
102952
103264
103716
104339
122452
117995
114440
111635
109436
107718
106375
105321
104495
103855
103372
103026
102801
102686
102673
102760
102953
103265
103716
104339
122448
117982
114418
111604
109397
107673
106328
105278
104461
103831
103358
103020
102800
102686
102674
102761
102953
103265
103716
104339
122448
117982
114418
111603
109396
107672
106327
105277
104460
103830
103358
103019
102799
102686
102673
102760
102953
103265
103716
104339
122452
117994
114440
111634
109434
107716
106373
105320
104494
103854
103371
103025
102801
102686
102672
102760
102953
103264
103716
104339
122460
118020
114484
111697
109515
107812
106475
105413
104568
103902
103395
103034
102802
102684
102670
102758
102952
103264
103716
104339
122472
118060
114553
111798
109648
107973
106652
105576
104692
103975
103424
103037
102796
102678
102666
102755
102951
103264
103716
104339
122489
118114
114651
111945
109850
108228
106947
106040
105066
104231
103571
103110
102829
102662
102659
102753
102950
103264
103717
104339
122509
118183
114779
112152
110155
108639
107587
106453
105412
102778
102663
102654
102753
102952
103266
103718
104339
122532
118261
114937
112431
110607
109434
108332
102650
102766
102960
103270
103719
104339
122553
118337
115095
112729
111390
110229
101359
101359
102690
102761
102973
103275
103721
104340
122568
118396
115224
112979
111866
111124
101360
101361
101361
101359
101359
102800
102985
103280
103723
104340
122577
118430
115302
113150
112232
101360
101361
101361
101361
101361
101359
102845
102996
103284
103724
104340
122577
118430
115302
113151
112328
101360
101361
101361
101361
101361
101359
102857
102996
103284
103724
104340
122568
118396
115224
112979
112074
101360
101361
101361
101360
101359
102824
102985
103280
103723
104340
122553
118337
115095
112729
111651
110695
101360
101359
101359
101359
102781
102973
103275
103721
104340
122532
118261
114937
112431
110607
109828
102667
102766
102960
103270
103719
104339
122509
118183
114779
112152
110155
108639
107891
106815
102650
102654
102753
102952
103266
103718
104339
122489
118114
114651
111945
109850
108228
106947
106226
105180
104288
103573
103095
102808
102662
102659
102753
102950
103264
103717
104339
122472
118060
114553
111798
109648
107973
106652
105576
104692
103975
103424
103037
102796
102678
102666
102755
102951
103264
103716
104339
122460
118020
114484
111697
109515
107812
106475
105413
104568
103902
103395
103034
102802
102684
102670
102758
102952
103264
103716
104339
122452
117994
114440
111634
109434
107716
106373
105320
104494
103854
103371
103025
102801
102686
102672
102760
102953
103264
103716
104339
122448
117982
114418
111603
109396
107672
106327
105277
104460
103830
103358
103019
102799
102686
102673
102760
102953
103265
103716
104339
122448
117981
114417
111602
109395
107671
106325
105276
104458
103829
103357
103019
102799
102685
102673
102760
102953
103264
103716
104339
122452
117994
114439
111632
109433
107715
106371
105318
104493
103853
103370
103024
102800
102685
102672
102759
102952
103264
103716
104339
122460
118020
114483
111695
109513
107808
106472
105411
104567
103901
103395
103033
102801
102683
102670
102758
102951
103264
103716
104339
122472
118059
114551
111794
109642
107967
106648
105573
104692
103975
103424
103037
102796
102677
102665
102755
102950
103264
103716
104339
122488
118112
114646
111937
109840
108218
106940
106038
105066
104231
103570
103109
102828
102662
102658
102752
102949
103263
103716
104339
122508
118179
114772
112140
110140
108628
107582
106452
105412
102778
102663
102653
102752
102951
103265
103717
104339
122530
118255
114925
112414
110589
109426
108332
102650
102764
102958
103268
103719
104339
122549
118327
115078
112706
111375
110226
101365
101365
102690
102760
102970
103273
103720
104339
122564
118383
115200
112950
111852
111122
101365
101367
101367
101365
101365
102799
102981
103277
103721
104339
122571
118414
115275
113119
112220
101365
101367
101367
101367
101367
101365
102845
102992
103280
103722
104339
122571
118414
115275
113119
112317
101365
101367
101367
101367
101367
101365
102857
102992
103280
103722
104339
122564
118383
115200
112950
112062
101365
101367
101367
101365
101365
102824
102981
103277
103721
104339
122549
118327
115078
112706
111637
110693
101365
101365
101365
101365
102780
102970
103273
103720
104339
122530
118255
114925
112414
110589
109822
102667
102764
102958
103268
103719
104339
122508
118179
114772
112140
110140
108628
107889
106815
102650
102653
102752
102951
103265
103717
104339
122488
118112
114646
111937
109840
108218
106940
106224
105181
104289
103572
103094
102808
102662
102658
102752
102949
103263
103716
104339
122472
118059
114551
111794
109642
107967
106648
105573
104692
103975
103424
103037
102796
102677
102665
102755
102950
103263
103716
104339
122460
118020
114483
111695
109513
107808
106472
105411
104567
103901
103395
103033
102801
102683
102670
102758
102951
103264
103716
104339
122452
117994
114439
111632
109433
107715
106371
105318
104493
103853
103370
103024
102800
102685
102672
102759
102952
103264
103716
104339
122448
117981
114417
111602
109395
107671
106325
105275
104458
103829
103357
103019
102799
102685
102673
102760
102953
103264
103716
104339
122447
117981
114416
111601
109393
107669
106324
105274
104457
103828
103356
103018
102798
102685
102672
102759
102952
103264
103716
104339
122451
117993
114438
111631
109431
107712
106369
105316
104491
103852
103369
103024
102799
102684
102671
102759
102952
103264
103716
104339
122459
118019
114481
111692
109509
107804
106468
105408
104565
103900
103394
103033
102801
102683
102669
102757
102951
103264
103716
104339
122471
118057
114548
111789
109636
107959
106641
105569
104690
103975
103425
103038
102797
102677
102665
102754
102949
103263
103716
104339
122487
118109
114641
111928
109827
108202
106927
106032
105066
104233
103572
103110
102829
102662
102657
102750
102948
103263
103716
104339
122507
118175
114763
112125
110117
108603
107564
106455
105424
102777
102663
102651
102749
102949
103264
103716
104339
122527
118248
114911
112390
110555
109402
108332
102649
102760
102955
103267
103718
104339
122546
118316
115056
112667
111337
110211
101372
101372
102690
102756
102965
103270
103719
104339
122558
118367
115170
112897
111805
111110
101372
101375
101375
101372
101372
102797
102974
103273
103719
104339
122565
118395
115239
113057
112171
101372
101375
101376
101376
101375
101372
102844
102984
103275
103719
104338
122565
118395
115239
113057
112269
101372
101375
101376
101376
101375
101372
102857
102984
103275
103719
104338
122558
118367
115170
112897
112013
101373
101375
101375
101373
101372
102822
102974
103273
103719
104339
122546
118316
115056
112667
111595
110686
101372
101372
101372
101372
102776
102965
103270
103719
104339
122527
118248
114911
112390
110555
109800
102667
102760
102955
103267
103718
104339
122507
118175
114763
112125
110117
108603
107882
106812
102650
102651
102749
102949
103264
103716
104339
122487
118109
114641
111928
109827
108202
106927
106218
105194
104292
103570
103090
102809
102662
102657
102750
102948
103263
103716
104339
122471
118057
114548
111789
109636
107959
106641
105569
104690
103975
103425
103038
102797
102677
102665
102754
102949
103263
103716
104339
122459
118019
114481
111692
109509
107804
106468
105408
104565
103900
103395
103033
102801
102683
102669
102757
102951
103264
103716
104339
122451
117993
114438
111631
109431
107712
106369
105316
104491
103852
103369
103024
102799
102685
102671
102759
102952
103264
103716
104339
122447
117981
114416
111601
109393
107669
106324
105274
104457
103828
103356
103018
102798
102685
102672
102759
102952
103264
103716
104339
122447
117980
114415
111599
109391
107667
106321
105272
104455
103826
103354
103016
102797
102684
102671
102759
102952
103264
103716
104339
122451
117993
114436
111629
109429
107710
106367
105314
104489
103850
103368
103022
102798
102684
102671
102758
102952
103264
103716
104339
122459
118018
114480
111690
109506
107802
106466
105406
104562
103899
103393
103032
102800
102682
102668
102756
102951
103263
103716
104338
122471
118056
114546
111786
109632
107955
106637
105566
104688
103974
103424
103037
102796
102676
102664
102753
102949
103263
103716
104338
122487
118108
114638
111924
109822
108195
106921
106027
105066
104235
103572
103110
102829
102661
102656
102749
102947
103262
103716
104338
122506
118173
114759
112119
110108
108592
107551
106457
105435
101372
101372
101372
102776
102663
102650
102748
102948
103263
103716
104339
122526
118245
114906
112381
110542
109385
108331
101372
101373
101374
101374
101373
101372
101372
102649
102759
102954
103266
103717
104339
122544
118312
115048
112653
111312
110196
101372
101374
101377
101380
101380
101378
101375
101372
102690
102753
102963
103269
103718
104339
122557
118362
115159
112877
111769
111097
101373
101377
101385
101386
101386
101385
101379
101374
101372
102795
102972
103272
103718
104338
122563
118389
115226
113035
112135
101372
101374
101380
101386
101387
101387
101386
101381
101377
101372
102844
102981
103274
103718
104338
122563
118389
115226
113035
112234
101372
101375
101380
101386
101387
101387
101386
101381
101377
101372
102856
102981
103274
103718
104338
122557
118362
115159
112877
111976
101372
101374
101379
101385
101386
101386
101385
101380
101375
101372
102821
102972
103272
103718
104338
122544
118312
115048
112653
111565
110679
101372
101375
101380
101381
101382
101381
101377
101373
101372
102773
102963
103269
103718
104339
122526
118245
114906
112381
110542
109784
101372
101373
101375
101377
101377
101376
101373
101372
102667
102759
102954
103266
103717
104339
122506
118173
114759
112119
110108
108592
107876
106807
101372
101372
101373
101372
101372
102650
102650
102748
102948
103263
103716
104339
122487
118108
114638
111924
109822
108195
106921
106212
105205
104294
103569
103085
102809
102661
102656
102749
102947
103262
103716
104338
122471
118056
114546
111786
109632
107955
106637
105566
104688
103974
103424
103037
102796
102676
102664
102753
102949
103263
103716
104338
122459
118018
114480
111690
109506
107802
106466
105406
104563
103899
103393
103032
102800
102682
102668
102756
102950
103263
103716
104338
122451
117993
114436
111629
109429
107710
106367
105314
104489
103850
103368
103022
102798
102684
102671
102758
102951
103264
103716
104339
122447
117980
114415
111599
109391
107667
106321
105272
104455
103826
103354
103016
102797
102684
102671
102759
102952
103264
103716
104339
122447
117979
114414
111598
109389
107665
106319
105269
104452
103824
103352
103014
102795
102683
102670
102758
102951
103264
103716
104338
122451
117992
114435
111627
109427
107708
106365
105312
104487
103847
103365
103020
102797
102682
102670
102757
102951
103263
103716
104338
122459
118017
114479
111689
109506
107801
106464
105404
104560
103896
103390
103030
102798
102681
102668
102756
102950
103263
103716
104338
122471
118056
114546
111786
109633
107956
106638
105565
104685
103970
103420
103034
102794
102675
102663
102753
102949
103263
103715
104338
122487
118108
114639
111927
109828
108203
106927
106027
105061
104229
103568
103107
102827
102660
102656
102749
102947
103262
103716
104338
122506
118174
114763
112127
110122
108609
107559
106449
105419
102775
102661
102650
102749
102949
103263
103716
104339
122528
118249
114913
112396
110566
109398
108326
102648
102761
102956
103267
103718
104339
122546
118318
115061
112680
111333
110205
101394
101395
102689
102755
102967
103271
103719
104339
122560
118371
115179
112917
111800
111104
101395
101401
101401
101396
101393
102796
102977
103274
103720
104339
122567
118401
115251
113082
112167
101394
101402
101402
101402
101401
101395
102844
102987
103277
103720
104339
122567
118401
115251
113082
112264
101395
101402
101402
101402
101401
101395
102856
102987
103277
103720
104339
122560
118371
115179
112917
112008
101396
101401
101401
101397
101395
102822
102977
103274
103720
104339
122546
118318
115061
112680
111590
110680
101393
101395
101396
101395
102776
102967
103271
103719
104339
122528
118249
114913
112396
110566
109795
102666
102761
102956
103267
103718
104339
122506
118174
114763
112127
110122
108609
107877
106806
102648
102650
102749
102949
103263
103716
104339
122487
118108
114639
111927
109828
108203
106927
106213
105189
104288
103567
103087
102806
102660
102656
102749
102947
103262
103716
104338
122471
118056
114546
111786
109633
107956
106638
105565
104685
103970
103420
103034
102794
102675
102663
102753
102949
103263
103715
104338
122459
118017
114479
111689
109505
107801
106464
105404
104560
103896
103391
103030
102798
102681
102668
102756
102950
103263
103716
104338
122451
117992
114435
111627
109427
107708
106365
105311
104487
103848
103365
103020
102797
102682
102670
102757
102951
103263
103716
104338
122447
117979
114414
111598
109389
107665
106319
105269
104452
103824
103352
103014
102795
102683
102670
102758
102951
103264
103716
104338
122447
117978
114412
111595
109387
107662
106316
105266
104450
103821
103349
103012
102793
102681
102669
102757
102951
103263
103715
104338
122451
117991
114433
111625
109425
107706
106362
105309
104484
103845
103363
103018
102795
102681
102669
102757
102950
103263
103715
104338
122459
118016
114477
111688
109504
107800
106463
105402
104557
103893
103387
103027
102796
102679
102667
102755
102950
103263
103715
104338
122471
118055
114545
111787
109635
107958
106639
105564
104682
103966
103416
103030
102791
102673
102662
102752
102948
103262
103715
104338
122487
118109
114641
111932
109835
108212
106932
106027
105056
104222
103563
103103
102823
102658
102655
102750
102948
103262
103716
104338
122507
118176
114768
112136
110137
108622
107570
106441
105402
102773
102659
102650
102750
102950
103264
103717
104339
122529
118253
114923
112413
110587
109415
108320
102648
102763
102958
103268
103718
104339
122549
118327
115078
112708
111364
110214
101415
101414
102688
102758
102970
103273
103720
104339
122564
118384
115204
112956
111840
111109
101415
101421
101420
101414
101414
102798
102982
103278
103722
104339
122572
118416
115280
113126
112208
101415
101421
101421
101421
101420
101414
102844
102993
103281
103723
104340
122572
118416
115280
113126
112305
101415
101421
101421
101421
101420
101414
102856
102993
103281
103723
104340
122564
118384
115204
112956
112050
101415
101421
101420
101415
101414
102822
102982
103278
103722
104339
122549
118327
115078
112708
111625
110681
101415
101415
101415
101414
102779
102970
103273
103720
104339
122529
118253
114923
112413
110587
109810
102664
102763
102958
103268
103718
104339
122507
118176
114768
112136
110137
108622
107877
106804
102646
102650
102750
102950
103264
103717
104339
122487
118109
114641
111932
109835
108212
106932
106214
105171
104280
103564
103088
102803
102658
102655
102750
102948
103262
103716
104338
122471
118055
114545
111787
109635
107958
106639
105564
104682
103966
103416
103030
102791
102673
102662
102752
102948
103262
103715
104338
122459
118016
114477
111688
109504
107800
106463
105402
104557
103893
103387
103027
102796
102679
102667
102755
102950
103263
103715
104338
122451
117991
114433
111625
109425
107706
106362
105309
104484
103845
103363
103018
102795
102681
102669
102757
102950
103263
103715
104338
122447
117978
114412
111595
109387
107662
106316
105266
104450
103821
103350
103012
102793
102681
102669
102757
102951
103263
103715
104338
122446
117977
114410
111592
109383
107658
106312
105262
104446
103818
103346
103010
102791
102679
102668
102756
102950
103263
103715
104338
122450
117989
114431
111623
109421
107702
106358
105305
104480
103841
103359
103015
102793
102679
102667
102756
102950
103262
103715
104338
122458
118015
114475
111685
109502
107796
106459
105398
104553
103889
103384
103024
102793
102677
102665
102754
102949
103262
103715
104338
122470
118054
114544
111785
109633
107956
106636
105559
104677
103961
103412
103027
102788
102671
102661
102752
102948
103262
103715
104338
122487
118108
114640
111931
109835
108211
106929
106024
105050
104217
103559
103100
102821
102656
102654
102749
102947
103262
103716
104338
122507
118176
114769
112138
110139
108620
107568
106435
105396
102771
102658
102649
102750
102950
103264
103717
104339
122530
118255
114926
112417
110589
109415
108313
102646
102763
102958
103269
103719
104339
122551
118330
115084
112714
111371
110209
101438
101438
102687
102758
102971
103274
103721
104340
122566
118389
115213
112964
111846
111103
101439
101445
101444
101437
101437
102798
102983
103279
103723
104340
122575
118424
115292
113135
112212
101439
101446
101445
101444
101443
101436
102843
102995
103283
103724
104340
122575
118424
115292
113135
112309
101439
101446
101445
101444
101443
101436
102855
102995
103283
103724
104340
122566
118389
115213
112964
112055
101439
101445
101444
101437
101436
102822
102983
103279
103723
104340
122551
118330
115084
112714
111632
110675
101439
101438
101438
101437
102779
102971
103274
103721
104340
122530
118255
114926
112417
110589
109809
102663
102763
102958
103269
103719
104339
122507
118176
114769
112138
110139
108620
107872
106797
102645
102649
102750
102950
103264
103717
104339
122487
118108
114640
111931
109835
108211
106929
106209
105165
104275
103561
103086
102801
102656
102654
102749
102947
103262
103716
104338
122470
118054
114544
111785
109633
107956
106636
105559
104677
103961
103412
103027
102788
102671
102661
102752
102948
103262
103715
104338
122458
118015
114475
111685
109502
107796
106459
105398
104553
103889
103384
103024
102794
102677
102665
102754
102949
103262
103715
104338
122450
117989
114431
111623
109421
107702
106358
105305
104480
103841
103360
103015
102793
102679
102667
102756
102950
103262
103715
104338
122446
117977
114410
111592
109383
107658
106312
105262
104446
103818
103346
103010
102791
102679
102668
102756
102950
103263
103715
104338
122446
117975
114407
111589
109379
107653
106307
105257
104441
103813
103343
103006
102789
102677
102666
102755
102949
103262
103715
104338
122450
117988
114428
111619
109417
107697
106353
105299
104475
103836
103356
103012
102790
102677
102666
102754
102949
103262
103715
104338
122458
118013
114472
111681
109496
107791
106453
105392
104548
103884
103380
103021
102791
102675
102664
102753
102948
103262
103715
104338
122470
118052
114540
111781
109628
107950
106629
105553
104671
103956
103408
103024
102786
102669
102659
102751
102947
103261
103715
104338
122486
118105
114637
111926
109829
108204
106922
106017
105044
104212
103555
103097
102818
102654
102653
102748
102947
103262
103715
104338
122506
118174
114765
112133
110132
108612
107561
106428
105389
102769
102656
102648
102749
102949
103264
103716
104339
122529
118252
114922
112411
110581
109407
108305
102645
102762
102958
103268
103718
104339
122550
118328
115080
112708
111365
110201
101466
101465
102686
102757
102970
103274
103721
104340
122566
118387
115209
112957
111839
111094
101467
101474
101473
101464
101463
102797
102983
103279
103722
104340
122575
118422
115288
113129
112205
101468
101475
101474
101473
101471
101463
102842
102994
103283
103724
104340
122575
118422
115288
113129
112301
101468
101475
101474
101473
101471
101463
102854
102994
103283
103724
104340
122566
118387
115209
112957
112047
101467
101474
101473
101464
101463
102821
102983
103279
103722
104340
122550
118328
115080
112708
111625
110666
101467
101466
101465
101464
102778
102971
103274
103721
104340
122529
118252
114922
112411
110581
109801
102662
102762
102958
103268
103718
104339
122506
118174
114765
112133
110132
108612
107864
106789
102643
102648
102749
102949
103264
103716
104339
122486
118105
114637
111926
109829
108204
106922
106202
105158
104269
103557
103083
102799
102654
102653
102748
102947
103262
103715
104338
122470
118052
114540
111781
109628
107950
106629
105553
104671
103956
103408
103024
102786
102669
102659
102751
102947
103261
103715
104338
122458
118013
114472
111681
109496
107791
106453
105392
104548
103884