/*--------------------------------*- C++ -*----------------------------------*\
  =========                 |
  \\      /  F ield         | OpenFOAM: The Open Source CFD Toolbox
   \\    /   O peration     | Website:  https://openfoam.org
    \\  /    A nd           | Version:  11
     \\/     M anipulation  |
\*---------------------------------------------------------------------------*/
FoamFile
{
    format      ascii;
    class       surfaceScalarField;
    location    "0.0001";
    object      phi;
}
// * * * * * * * * * * * * * * * * * * * * * * * * * * * * * * * * * * * * * //

dimensions      [1 0 -1 0 0 0 0];

internalField   nonuniform List<scalar> 
62564
(
0.00317517
-3.13983e-06
5.28838e-08
0.00244165
-9.57309e-06
5.63622e-08
0.00187335
-1.60333e-05
9.26526e-08
0.00143661
-2.22863e-05
1.38073e-07
0.0011034
-2.75787e-05
1.7553e-07
0.000850336
-3.09239e-05
1.98792e-07
0.000657701
-3.1431e-05
2.1001e-07
0.000508905
-2.85823e-05
2.12427e-07
0.000390339
-2.24384e-05
1.98304e-07
0.000292084
-1.45878e-05
1.75207e-07
0.00020821
-7.69338e-06
1.5215e-07
0.000134861
-2.90691e-06
1.33269e-07
6.91963e-05
-5.63641e-07
1.17436e-07
7.89001e-06
2.73826e-07
1.01297e-07
-5.288e-05
3.85791e-07
8.3587e-08
-0.000117298
2.10493e-07
6.55982e-08
-0.000190075
2.96943e-08
4.79578e-08
-0.000276605
-5.98305e-08
3.13332e-08
-0.000383229
-6.86213e-08
1.6451e-08
-2.88919e-08
3.7105e-09
0.00316916
-6.57106e-06
4.79434e-08
0.00243575
-2.00035e-05
5.14168e-08
0.00186793
-3.38595e-05
8.57641e-08
0.00143233
-4.76103e-05
1.29196e-07
0.00110127
-5.96382e-05
1.60842e-07
0.000851187
-6.7324e-05
1.80191e-07
0.000661856
-6.85382e-05
1.84793e-07
0.000516171
-6.25143e-05
1.83503e-07
0.000399154
-4.83656e-05
1.77069e-07
0.000299875
-2.95368e-05
1.6776e-07
0.00021377
-1.40249e-05
1.5502e-07
0.000137822
-3.69937e-06
1.39556e-07
7.04247e-05
4.09877e-07
1.21284e-07
8.1951e-06
1.40124e-06
1.01065e-07
-5.29918e-05
1.11434e-06
8.20193e-08
-0.0001175
4.30762e-07
6.3445e-08
-0.000190221
-6.13231e-08
4.5923e-08
-0.000276672
-2.42293e-07
2.96467e-08
-0.000383243
-2.14427e-07
1.52371e-08
-8.46896e-08
2.92661e-09
0.00315649
-1.05693e-05
4.66941e-08
0.00242308
-3.20625e-05
5.2298e-08
0.00185592
-5.51882e-05
9.10767e-08
0.00142258
-7.93628e-05
1.36007e-07
0.00109615
-0.000101589
1.67558e-07
0.000852958
-0.000116248
1.81679e-07
0.000670827
-0.000117857
1.75928e-07
0.000532579
-0.000108639
1.67102e-07
0.000419819
-8.27222e-05
1.61986e-07
0.000317302
-4.40384e-05
1.5983e-07
0.000225704
-1.64671e-05
1.50729e-07
0.000143318
1.11257e-06
1.38695e-07
7.23162e-05
4.7563e-06
1.20343e-07
8.37335e-06
4.21455e-06
9.75674e-08
-5.34777e-05
2.32852e-06
7.9992e-08
-0.000117996
4.51319e-07
6.16292e-08
-0.000190508
-5.30566e-07
4.41977e-08
-0.000276757
-7.38675e-07
2.83316e-08
-0.000383207
-5.45764e-07
1.41581e-08
-2.15446e-07
2.3238e-09
0.00313637
-1.50345e-05
4.49174e-08
0.00240205
-4.57844e-05
5.67724e-08
0.00183449
-8.06966e-05
1.0071e-07
0.0014033
-0.000120124
1.51369e-07
0.00108415
-0.000159819
1.88055e-07
0.000854203
-0.000188204
1.90993e-07
0.000684059
-0.000186487
1.68845e-07
0.000560771
-4.24225e-05
1.52685e-07
-4.55869e-05
-4.27015e-05
-4.58223e-05
0.000459152
-3.7438e-05
1.63589e-07
-3.0029e-05
-3.77993e-05
-3.00602e-05
0.000346866
-1.50955e-05
1.59455e-07
-1.11252e-05
-1.51389e-05
-1.10883e-05
0.000244727
-3.62879e-06
1.40012e-07
-1.32532e-06
-3.67911e-06
-1.3141e-06
0.000149023
3.91972e-06
1.30622e-07
5.20771e-06
3.91895e-06
5.30684e-06
7.31647e-05
4.22632e-06
1.18368e-07
2.92665e-06
4.26339e-06
2.95677e-06
7.29196e-06
9.42624e-06
8.68281e-08
-5.47953e-05
3.48646e-06
7.68218e-08
-0.00011882
-4.12344e-07
5.91347e-08
-0.000190825
-1.81104e-06
4.1873e-08
-0.000276751
-1.75595e-06
2.64422e-08
-0.000383039
-1.15239e-06
1.29919e-08
-4.37021e-07
1.37176e-09
0.00310767
-1.9347e-05
4.15441e-08
0.00236984
-5.93619e-05
6.38645e-08
0.00179802
-0.00010802
1.15637e-07
0.00136532
-0.000168876
1.78562e-07
0.0010552
-0.00024074
2.33999e-07
0.000857615
-0.00031005
2.40975e-07
0.000169512
-7.52654e-05
2.80383e-07
-6.38946e-05
-7.55781e-05
-6.40431e-05
0.000178342
0.000170092
0.000179376
0.000159384
-5.85229e-05
6.83249e-08
0.000141307
-5.2991e-05
1.31486e-07
-0.000147253
-0.000127945
0.000111879
-1.56776e-05
2.29431e-07
-9.38099e-05
8.0069e-05
-2.52224e-06
1.6126e-07
-6.55362e-05
5.08503e-05
8.2601e-06
1.28576e-07
-3.66142e-05
2.54192e-05
6.97448e-06
5.31851e-08
2.20224e-06
2.25299e-06
7.86008e-08
2.03583e-06
2.25755e-06
2.04057e-06
-1.52457e-05
-1.53913e-05
-1.53041e-05
-1.54967e-05
-5.74034e-05
1.36665e-06
7.19528e-08
-0.000119634
-3.67246e-06
5.58534e-08
-0.000190764
-4.36111e-06
3.89694e-08
-0.000276357
-3.35599e-06
2.43196e-08
-0.000382561
-1.9913e-06
1.16791e-08
-7.26777e-07
7.42479e-11
0.00307007
-2.19082e-05
3.99011e-08
0.00232392
-6.83324e-05
7.42224e-08
0.00173885
-0.000128583
1.36563e-07
0.00129136
-0.000213047
2.15879e-07
0.000985063
-0.00034314
3.40775e-07
0.000203161
-0.00011712
3.53956e-07
0.000211133
0.000204134
0.000212942
-0.00013407
-0.000118036
-0.000135629
0.000197565
-0.000105974
1.79758e-08
-0.000180904
0.000224808
-0.000147965
2.43225e-07
7.07556e-05
0.000122146
-0.000133783
-1.61238e-07
-2.54191e-05
2.82488e-05
6.07148e-08
-9.89052e-06
-1.36554e-05
5.61236e-06
3.14063e-06
3.32954e-08
-6.0367e-05
-2.57173e-06
7.41555e-08
2.04863e-06
2.56775e-06
2.03847e-06
2.57395e-06
-2.78965e-06
-2.61046e-06
-2.82606e-06
-0.000119086
-1.10511e-05
5.84942e-08
-0.000189498
-7.82953e-06
3.67329e-08
-0.000275161
-5.05586e-06
2.27946e-08
-0.000381565
-2.76157e-06
1.06873e-08
-9.56228e-07
-9.84664e-10
0.00302616
-2.14484e-05
4.10367e-08
0.00226646
-6.76966e-05
8.87775e-08
0.00165533
-0.000128949
1.63985e-07
0.00116161
-0.000217137
2.43722e-07
0.000205984
-8.64925e-05
3.77546e-07
0.000185705
0.00020631
0.000185777
-0.000104004
-8.70159e-05
-0.00010487
0.000181953
-0.000140021
-6.05293e-08
0.000211083
-0.000239552
-8.12718e-08
5.0636e-06
-9.10864e-06
-7.90097e-06
-1.32629e-08
-0.000114745
-5.31994e-06
6.11736e-08
1.49046e-05
1.41495e-05
1.49162e-05
1.41459e-05
-4.21056e-06
-5.37749e-06
-4.2515e-06
-0.000186385
-9.48517e-06
3.58252e-08
-0.000273035
-5.77864e-06
2.2944e-08
-0.000380031
-3.08077e-06
1.05107e-08
-1.02954e-06
-1.54629e-09
0.00298154
-1.77974e-05
4.24753e-08
0.00220673
-5.71383e-05
1.05492e-07
0.00156925
-0.0001123
2.08991e-07
0.000259296
-0.000200584
4.15713e-07
0.000260168
0.000259664
0.000260353
0.000207364
-9.03879e-05
-3.61532e-08
0.000132262
0.000175181
-0.000204504
-3.7213e-07
-0.000160016
-2.83169e-09
9.02714e-10
-6.76352e-08
-6.87147e-10
3.98156e-09
-4.7641e-09
-1.06571e-07
6.4556e-06
-1.0485e-05
-6.54929e-09
1.28984e-05
-1.99149e-05
-6.13091e-06
-9.62255e-09
-0.000182597
-1.11497e-05
5.09219e-08
2.73651e-05
2.76799e-05
2.73948e-05
2.76905e-05
-0.000270355
-5.94649e-06
2.49778e-08
-0.000378134
-2.95969e-06
1.0879e-08
-9.46151e-07
-1.95059e-09
0.00294254
-1.04795e-05
4.34218e-08
0.00215005
-3.39558e-05
1.12753e-07
0.00147623
-6.89702e-05
2.27861e-07
0.000225005
-0.000131514
5.46801e-07
0.000211367
0.000225247
0.000211282
0.00016346
-7.8125e-05
-5.21412e-08
7.94646e-05
0.000116212
-0.000144611
9.16991e-08
1.31044e-09
-1.87771e-10
-6.94523e-10
-8.39829e-10
-1.57555e-07
4.87125e-09
-5.912e-09
-1.23981e-06
-4.50399e-09
5.87597e-09
-9.99883e-10
8.85402e-09
-1.14986e-08
1.27765e-08
-7.70625e-09
7.72582e-09
-1.00724e-08
-6.50958e-09
-1.23794e-06
4.46098e-09
-3.11896e-09
7.39443e-09
-3.93086e-10
1.62761e-08
-7.00778e-09
1.05818e-08
2.65438e-09
1.07128e-09
-1.26609e-08
-1.46525e-07
-5.28464e-10
-7.08683e-08
-1.21518e-09
1.1973e-05
-1.67937e-05
-1.1755e-05
-2.96254e-08
6.50831e-06
-0.000176523
-8.55844e-06
6.36867e-08
2.50448e-05
2.38872e-05
2.50602e-05
2.38738e-05
-0.000267025
-4.13199e-06
2.54923e-08
-0.000376103
-1.94701e-06
1.08307e-08
-6.11242e-07
-2.22335e-09
0.00291876
2.23448e-09
4.45444e-08
0.00211299
2.8993e-09
1.14443e-07
0.0014094
1.40916e-09
2.37064e-07
0.000186905
-3.00664e-09
5.59411e-07
0.000182631
0.000186788
0.000182534
5.52326e-05
0.000100257
-3.0129e-05
-1.34925e-07
1.98483e-09
-3.75169e-09
-6.785e-08
-1.84543e-09
2.09646e-10
-1.24528e-06
-4.53662e-09
4.957e-09
-1.13609e-09
7.79614e-09
-1.21168e-08
1.56996e-08
-8.16037e-09
1.09165e-08
5.02334e-09
-3.62917e-10
-1.24986e-06
8.98723e-09
-1.18308e-10
-1.24721e-06
-3.01008e-09
-3.75114e-10
-1.23725e-06
6.03795e-09
8.07089e-11
8.53815e-09
1.12273e-08
-8.48097e-09
6.30489e-09
-5.69236e-09
-2.6815e-09
-3.60053e-10
-8.73579e-10
-1.79832e-07
6.72887e-06
-1.13702e-05
-3.13078e-06
-2.65233e-08
-0.000171421
-1.2205e-09
6.39381e-08
2.188e-05
2.14988e-05
2.18632e-05
2.1486e-05
-0.000264489
-4.73752e-10
2.60373e-08
-0.000374689
-1.55687e-10
1.06996e-08
7.17802e-11
-2.15332e-09
0.00291876
1.04829e-05
4.44999e-08
0.002113
3.39624e-05
1.1442e-07
0.00140941
6.8973e-05
2.37136e-07
0.000182613
0.000131516
5.60116e-07
0.000186921
0.000182519
0.000186801
-3.82657e-09
9.14252e-05
3.01213e-05
-6.90765e-08
-8.51789e-11
-4.94911e-09
3.86053e-09
-1.0598e-07
-2.86125e-09
-1.18616e-08
-1.24052e-06
4.60853e-09
-3.78698e-09
7.50042e-09
-9.21407e-10
1.66427e-08
-9.15056e-09
1.07633e-08
5.14482e-09
4.17709e-09
-1.24619e-06
8.9356e-09
4.57082e-09
-1.24374e-06
4.23243e-09
1.28058e-08
-1.23399e-06
-2.70442e-09
6.78682e-09
5.88412e-10
-9.8985e-09
7.45519e-09
-6.28508e-09
-4.14866e-10
3.98076e-09
1.02545e-09
-1.43835e-07
5.208e-10
-1.05976e-05
3.12917e-06
-2.54083e-08
-0.000171422
8.5561e-06
6.39308e-08
2.14935e-05
2.18854e-05
2.14807e-05
2.1869e-05
-0.00026449
4.13074e-06
2.59882e-08
-0.000374689
1.94676e-06
1.0638e-08
6.11259e-07
-2.13811e-09
0.00294255
1.77982e-05
4.33348e-08
0.00215007
5.71399e-05
1.12752e-07
0.00147625
0.000112302
2.28264e-07
0.000211367
0.000200584
5.48874e-07
0.000225018
0.000211281
0.000225257
-5.52355e-05
0.00012691
7.81243e-05
1.99825e-10
2.64307e-09
-1.31152e-08
3.63027e-10
-1.47371e-07
4.68122e-09
-4.38161e-09
-1.24091e-06
5.9726e-09
-1.74439e-09
7.78472e-09
1.01048e-08
-8.30295e-09
5.24029e-09
-5.38088e-09
1.52492e-08
5.24943e-09
-1.23792e-06
-4.36904e-09
7.27823e-09
-1.40396e-09
-9.98604e-09
1.00061e-08
-7.02144e-09
1.29793e-08
1.31716e-08
-1.46314e-07
2.32429e-09
1.02912e-09
-1.35422e-07
-3.70033e-09
-6.72858e-06
-1.3634e-05
1.17524e-05
-3.25774e-08
-0.000176523
1.11468e-05
6.36306e-08
2.38801e-05
2.50518e-05
2.3867e-05
2.50677e-05
-0.000267025
5.94553e-06
2.54573e-08
-0.000376104
2.95935e-06
1.06904e-08
9.46085e-07
-2.1851e-09
0.00298156
2.14473e-05
4.2456e-08
0.00220675
6.7696e-05
1.05647e-07
0.00156926
0.000128951
2.09605e-07
0.000260167
0.000217144
4.17779e-07
0.000259303
0.00026035
0.000259667
-7.94694e-05
0.000191587
9.03928e-05
-2.16393e-08
-0.000116215
0.00020451
1.17612e-07
-0.000133539
2.60664e-10
-7.04417e-08
-1.73835e-09
-3.86936e-09
-5.59194e-10
-1.87233e-10
-1.8049e-07
-1.21729e-09
3.03427e-09
3.98706e-09
-1.44079e-07
8.19805e-10
2.49398e-09
-1.35841e-07
-3.6138e-09
-6.50414e-06
1.1449e-05
-1.89779e-05
6.12653e-06
6.66885e-09
-0.000182596
9.48318e-06
5.10277e-08
2.76724e-05
2.73709e-05
2.76837e-05
2.74009e-05
-0.000270355
5.77838e-06
2.49483e-08
-0.000378134
3.08074e-06
1.07773e-08
1.02947e-06
-1.91284e-09
0.00302618
2.19057e-05
4.10877e-08
0.00226647
6.83296e-05
8.89882e-08
0.00165534
0.000128583
1.64334e-07
0.00116162
0.000213053
2.44118e-07
0.000185726
0.000343164
3.7668e-07
0.000205968
0.000185794
0.000206293
-8.65038e-05
-0.000103995
-8.7029e-05
-0.000104865
-0.000132262
0.000132708
0.000140042
-3.56639e-08
-6.45305e-06
-7.83514e-06
7.88609e-06
3.42644e-09
-0.000114739
1.10549e-05
6.07405e-08
1.41431e-05
1.49065e-05
1.41415e-05
1.49194e-05
-5.30924e-06
-4.22466e-06
-5.36487e-06
-4.26505e-06
-0.000186383
7.83195e-06
3.57722e-08
-0.000273033
5.05525e-06
2.29361e-08
-0.000380031
2.76395e-06
1.04876e-08
9.56189e-07
-1.5472e-09
0.00307008
1.93443e-05
3.99934e-08
0.00232393
5.93578e-05
7.44356e-08
0.00173886
0.000108017
1.3676e-07
0.00129138
0.000168875
2.15818e-07
0.000985093
0.000240752
3.39858e-07
0.000211228
0.000310058
3.52967e-07
-0.000117117
-0.000134095
-0.000118033
-0.000135658
0.000203099
0.000213038
0.000204079
-0.000211084
0.000269765
0.000106026
9.67967e-09
-0.000164164
0.00014798
-4.55584e-08
-8.1579e-06
4.9588e-06
-3.13596e-06
1.59304e-08
-6.03697e-05
-1.37764e-06
7.41966e-08
-2.52904e-06
-2.81767e-06
-2.56414e-06
-2.85213e-06
2.56354e-06
2.04107e-06
2.57146e-06
2.0318e-06
-0.000119086
3.67327e-06
5.8679e-08
-0.000189498
4.36228e-06
3.68133e-08
-0.000275162
3.35687e-06
2.28598e-08
-0.000381565
1.99166e-06
1.06966e-08
7.26759e-07
-9.87202e-10
0.00310767
1.50326e-05
4.16339e-08
0.00236984
4.57814e-05
6.40059e-08
0.00179802
8.06945e-05
1.15697e-07
0.00136532
0.000120124
1.78441e-07
0.0010552
0.000159823
2.33774e-07
0.000857614
0.000188215
2.41247e-07
0.000178345
0.000186499
2.78642e-07
-7.52595e-05
-6.39132e-05
-7.5566e-05
-6.40517e-05
0.000169499
0.000179393
0.000170083
-7.07661e-05
0.000163867
5.85369e-05
-3.48229e-08
-0.000122154
0.000195122
5.29948e-05
1.92864e-07
-0.000152522
-0.000140188
0.000109269
1.56915e-05
2.1573e-08
-8.95869e-05
7.60378e-05
2.52993e-06
2.05497e-08
-6.79487e-05
6.59487e-05
-8.24921e-06
3.19161e-08
9.8841e-06
-3.52707e-05
2.42886e-05
-6.97126e-06
2.28914e-08
2.20073e-06
-9.42977e-06
7.91467e-08
2.27453e-06
2.01334e-06
2.28036e-06
2.01872e-06
-1.53576e-05
-1.52787e-05
-1.54602e-05
-1.53362e-05
-5.74083e-05
-3.49413e-06
7.23464e-08
-0.000119636
4.10158e-07
5.62239e-08
-0.000190764
1.81073e-06
3.91357e-08
-0.000276357
1.75629e-06
2.44092e-08
-0.000382561
1.15259e-06
1.17052e-08
4.37005e-07
7.68055e-11
0.00313636
1.05685e-05
4.49819e-08
0.00240204
3.20612e-05
5.68423e-08
0.00183448
5.51876e-05
1.007e-07
0.00140329
7.93638e-05
1.51322e-07
0.00108414
0.000101592
1.88226e-07
0.000854199
0.000116253
1.91649e-07
0.000684062
0.000117862
1.68983e-07
0.000560782
0.000108637
1.51583e-07
-4.24354e-05
-4.55828e-05
-4.27083e-05
-4.58096e-05
0.000459148
8.27132e-05
1.60292e-07
-3.74621e-05
-3.00016e-05
-3.78111e-05
-3.00242e-05
0.000346864
4.40408e-05
1.54904e-07
-1.51397e-05
-1.10925e-05
-1.51693e-05
-1.1047e-05
0.000244724
1.64742e-05
1.36857e-07
-3.67191e-06
-1.29311e-06
-3.71246e-06
-1.27559e-06
0.000149031
-1.09933e-06
1.30244e-07
3.89171e-06
5.21879e-06
3.89591e-06
5.32142e-06
7.31691e-05
-4.75584e-06
1.18881e-07
4.22325e-06
2.92948e-06
4.26316e-06
2.95983e-06
7.29442e-06
-4.21635e-06
8.69648e-08
-5.47969e-05
-2.33238e-06
7.7099e-08
-0.000118822
-4.53945e-07
5.9423e-08
-0.000190825
5.29624e-07
4.20526e-08
-0.000276751
7.38553e-07
2.6539e-08
-0.000383039
5.45756e-07
1.30337e-08
2.1548e-07
1.35803e-09
0.00315648
6.57093e-06
4.67442e-08
0.00242307
2.00033e-05
5.23383e-08
0.00185591
3.38597e-05
9.10735e-08
0.00142257
4.76112e-05
1.36034e-07
0.00109614
5.96397e-05
1.67794e-07
0.000852953
6.73257e-05
1.82218e-07
0.000670826
6.85391e-05
1.76391e-07
0.000532578
6.25125e-05
1.67087e-07
0.000419814
4.83625e-05
1.60983e-07
0.000317298
2.95387e-05
1.58026e-07
0.000225704
1.403e-05
1.49155e-07
0.000143324
3.7055e-06
1.38045e-07
7.23201e-05
-4.08103e-07
1.20256e-07
8.37602e-06
-1.40197e-06
9.76281e-08
-5.34771e-05
-1.11632e-06
8.01948e-08
-0.000117996
-4.32497e-07
6.17944e-08
-0.000190507
5.9502e-08
4.43772e-08
-0.000276757
2.43488e-07
2.83867e-08
-0.000383206
2.14368e-07
1.42426e-08
8.46748e-08
2.23833e-09
0.00316915
3.1399e-06
4.79898e-08
0.00243574
9.57323e-06
5.14656e-08
0.00186792
1.60336e-05
8.57946e-08
0.00143233
2.22868e-05
1.29268e-07
0.00110127
2.75792e-05
1.6105e-07
0.000851182
3.09243e-05
1.80559e-07
0.000661853
3.14309e-05
1.85144e-07
0.000516168
2.85813e-05
1.83597e-07
0.000399149
2.24374e-05
1.76655e-07
0.000299871
1.45889e-05
1.66916e-07
0.00021377
7.6959e-06
1.54168e-07
0.000137825
2.90958e-06
1.39048e-07
7.04278e-05
5.64668e-07
1.21102e-07
8.19772e-06
-2.74021e-07
1.01081e-07
-5.29904e-05
-3.86664e-07
8.21355e-08
-0.000117498
-2.11832e-07
6.35541e-08
-0.000190222
-2.92167e-08
4.60563e-08
-0.000276671
5.96383e-08
2.96772e-08
-0.000383242
6.8617e-08
1.53255e-08
2.88346e-08
2.84267e-09
0.00317516
5.29496e-08
0.00244164
5.64482e-08
0.00187334
9.27451e-08
0.0014366
1.38194e-07
0.0011034
1.75686e-07
0.000850332
1.99048e-07
0.000657697
2.10247e-07
0.000508901
2.12468e-07
0.000390334
1.98016e-07
0.000292081
1.74659e-07
0.000208209
1.51575e-07
0.000134862
1.32868e-07
6.91989e-05
1.17254e-07
7.89231e-06
1.01277e-07
-5.28785e-05
8.36627e-08
-0.000117298
6.56869e-08
-0.000190075
4.80342e-08
-0.000276605
3.13809e-08
-0.000383229
1.64789e-08
3.7013e-09
0.00317542
-3.11834e-06
5.52985e-08
0.00244184
-9.51858e-06
1.3786e-07
0.00187346
-1.59608e-05
2.18484e-07
0.00143664
-2.21947e-05
3.04295e-07
0.00110341
-2.75049e-05
3.46112e-07
0.000850322
-3.08644e-05
3.93831e-07
0.000657681
-3.13788e-05
4.00486e-07
0.000508898
-2.85486e-05
3.98788e-07
0.000390346
-2.24219e-05
3.80262e-07
0.000292091
-1.4582e-05
3.55932e-07
0.000208204
-7.69763e-06
3.31357e-07
0.000134843
-2.91347e-06
2.95436e-07
6.91761e-05
-5.69953e-07
2.55494e-07
7.87228e-06
2.70251e-07
2.14713e-07
-5.28955e-05
3.86252e-07
1.74716e-07
-0.000117314
2.15022e-07
1.3598e-07
-0.000190095
3.64114e-08
1.01864e-07
-0.000276633
-5.2541e-08
6.84706e-08
-0.000383266
-6.25174e-08
3.91257e-08
-2.63127e-08
1.21629e-08
0.00316942
-6.54917e-06
5.57608e-08
0.00243593
-1.98797e-05
1.42905e-07
0.00186803
-3.37201e-05
2.27617e-07
0.00143241
-4.74874e-05
3.03418e-07
0.00110135
-5.95729e-05
3.59818e-07
0.000851268
-6.7308e-05
3.97014e-07
0.000661987
-6.85766e-05
3.94503e-07
0.000516361
-6.26032e-05
3.91214e-07
0.000399366
-4.84386e-05
3.72003e-07
0.000300044
-2.95552e-05
3.54061e-07
0.000213877
-1.40235e-05
3.29347e-07
0.00013786
-3.67944e-06
2.96333e-07
7.04208e-05
4.21591e-07
2.54976e-07
8.17691e-06
1.40059e-06
2.12712e-07
-5.30126e-05
1.11311e-06
1.72623e-07
-0.000117519
4.33286e-07
1.34607e-07
-0.000190242
-5.07538e-08
9.94819e-08
-0.000276699
-2.29882e-07
6.75809e-08
-0.00038328
-2.00485e-07
3.85208e-08
-8.22247e-08
1.1806e-08
0.00315671
-1.04573e-05
5.74585e-08
0.00242326
-3.18848e-05
1.51346e-07
0.00185602
-5.49643e-05
2.43117e-07
0.00142268
-7.92451e-05
3.2608e-07
0.0010963
-0.000101629
3.8451e-07
0.000853223
-0.000116445
4.05205e-07
0.000671142
-0.000118069
3.96529e-07
0.000533067
-0.000109067
3.76183e-07
0.000420382
-8.30464e-05
3.57566e-07
0.000317739
-4.40832e-05
3.43117e-07
0.000226007
-1.64546e-05
3.21704e-07
0.000143447
1.21565e-06
2.91897e-07
7.23379e-05
4.82097e-06
2.51369e-07
8.35993e-06
4.21961e-06
2.06533e-07
-5.35033e-05
2.32265e-06
1.68187e-07
-0.00011802
4.46133e-07
1.3158e-07
-0.000190528
-5.22535e-07
9.69264e-08
-0.000276784
-7.16531e-07
6.54873e-08
-0.00038324
-5.2586e-07
3.7154e-08
-2.01936e-07
1.11887e-08
0.00313661
-1.49008e-05
6.06417e-08
0.00240225
-4.5535e-05
1.64563e-07
0.00183471
-8.04952e-05
2.69138e-07
0.0014036
-0.000120183
3.65196e-07
0.00108469
-0.000160313
4.28683e-07
0.00085507
-0.000189049
4.33808e-07
0.000685098
-0.000187167
3.97391e-07
0.000562209
-4.28644e-05
3.52933e-07
-4.59662e-05
-4.2941e-05
-4.60082e-05
0.000460711
-3.79592e-05
3.3038e-07
-3.00993e-05
-3.80055e-05
-3.01174e-05
0.000348015
-1.51413e-05
3.25456e-07
-1.10535e-05
-1.51551e-05
-1.10575e-05
0.000245573
-3.67116e-06
3.12844e-07
-1.28164e-06
-3.68461e-06
-1.28227e-06
0.000149425
3.95401e-06
2.89124e-07
5.37359e-06
3.9514e-06
5.38059e-06
7.32894e-05
4.29969e-06
2.45629e-07
2.98374e-06
4.29997e-06
2.99e-06
7.31154e-06
9.45445e-06
1.93758e-07
-5.48286e-05
3.47084e-06
1.60849e-07
-0.000118859
-4.4653e-07
1.26925e-07
-0.000190859
-1.8199e-06
9.33441e-08
-0.00027678
-1.73831e-06
6.26864e-08
-0.000383076
-1.12227e-06
3.52444e-08
-4.209e-07
1.03858e-08
0.00310797
-1.91675e-05
6.66721e-08
0.00237018
-5.9145e-05
1.85472e-07
0.00179843
-0.000107978
3.09237e-07
0.00136595
-0.000169438
4.26575e-07
0.00105645
-0.000242412
5.0043e-07
0.000860199
-0.000313069
4.7708e-07
0.000170278
-7.58299e-05
4.13811e-07
-6.41422e-05
-7.59022e-05
-6.41463e-05
0.000179648
0.00017038
0.000179676
-1.27582e-07
0.000160333
-5.91834e-05
1.13003e-07
-1.32931e-07
0.000142712
-5.40526e-05
1.00887e-07
-0.000148088
-1.79931e-07
-0.000128868
0.0001128
-1.55144e-05
1.18697e-07
-1.35368e-07
-9.44408e-05
8.07238e-05
-2.46513e-06
1.04321e-07
-1.1051e-07
-6.60068e-05
5.13546e-05
8.34707e-06
9.24433e-08
-3.68399e-05
-5.8129e-08
2.55826e-05
7.11921e-06
6.25888e-08
2.3046e-06
2.26965e-06
1.78605e-07
2.0527e-06
2.26448e-06
2.05197e-06
-1.53309e-05
-1.55299e-05
-1.53456e-05
-1.55421e-05
-5.74284e-05
1.30079e-06
1.49332e-07
-0.000119687
-3.77762e-06
1.20971e-07
-0.000190815
-4.41504e-06
8.96265e-08
-0.000276405
-3.35412e-06
6.00391e-08
-0.000382603
-1.96716e-06
3.35018e-08
-7.04903e-07
9.72737e-09
0.00307049
-2.17717e-05
7.78335e-08
0.00232438
-6.81994e-05
2.15876e-07
0.00173934
-0.000128788
3.62018e-07
0.001292
-0.000214274
4.9721e-07
0.000986796
-0.00034686
5.7065e-07
0.000204171
-0.000118632
4.84049e-07
0.000212739
0.000204182
0.00021254
-0.000136054
-0.000118728
-0.00013591
-1.79823e-07
0.000199212
-0.000107293
1.26622e-07
-1.38037e-07
-0.000182015
0.000221393
-0.0001442
7.91175e-08
7.21698e-05
5.4774e-08
0.000118871
-0.000130234
2.42367e-09
-4.57796e-08
-2.47463e-05
2.78049e-05
4.21849e-08
-9.94739e-06
-3.40674e-08
-1.37506e-05
5.70582e-06
3.15943e-06
3.82183e-08
-6.03671e-05
-2.62367e-06
1.3243e-07
2.01083e-06
2.55033e-06
2.00389e-06
2.54213e-06
-2.84471e-06
-2.62589e-06
-2.85364e-06
-0.00011912
-1.12971e-05
1.1316e-07
-0.000189552
-7.94428e-06
8.62106e-08
-0.00027522
-5.07973e-06
5.86483e-08
-0.000381622
-2.74721e-06
3.28378e-08
-9.39669e-07
9.74876e-09
0.00302665
-2.13563e-05
9.50809e-08
0.00226695
-6.76666e-05
2.56656e-07
0.00165558
-0.000129221
4.22375e-07
0.00116133
-0.000218355
5.35186e-07
0.000206074
-8.75394e-05
5.53524e-07
0.000185373
0.000206065
0.000185274
-0.000105421
-8.76945e-05
-0.000105521
-1.87428e-07
0.000182419
-0.000142156
1.28496e-07
2.6732e-08
0.000206174
-0.000234077
1.91777e-08
-4.30758e-09
4.94643e-06
-9.09222e-06
-7.77587e-06
1.86453e-08
-0.000114685
-5.41484e-06
9.28501e-08
1.48854e-05
1.41068e-05
1.48782e-05
1.40923e-05
-4.29113e-06
-5.42834e-06
-4.30711e-06
-0.000186408
-9.59432e-06
7.91333e-08
-0.000273097
-5.80848e-06
5.87765e-08
-0.000380096
-3.07842e-06
3.38775e-08
-1.01847e-06
1.07951e-08
0.00298206
-1.77931e-05
1.16516e-07
0.00220719
-5.72363e-05
3.03232e-07
0.00156942
-0.000112785
5.01642e-07
0.000259526
-0.00020212
6.03273e-07
0.00026015
0.000259546
0.000260077
-1.76611e-07
0.000207474
-9.15546e-05
1.42014e-07
1.71351e-07
0.000134031
0.000170466
-0.000201138
-3.86478e-09
-0.000160336
1.3449e-07
-2.58087e-09
1.88744e-09
-2.03028e-07
2.12235e-07
-3.56986e-09
4.109e-09
-4.00841e-09
-3.1764e-07
-1.69443e-10
6.30602e-06
-1.01897e-05
5.16259e-09
1.28748e-05
-2.83607e-09
-1.99e-05
-6.29479e-06
1.09653e-08
-0.000182604
-1.12898e-05
7.52222e-08
2.73744e-05
2.76646e-05
2.73714e-05
2.76516e-05
-0.00027041
-5.99844e-06
6.16238e-08
-0.000378202
-2.97214e-06
3.62476e-08
-9.46156e-07
1.27018e-08
0.00294299
-1.04834e-05
1.35784e-07
0.00215024
-3.40546e-05
3.36383e-07
0.00147566
-6.93496e-05
5.55421e-07
0.000224883
-0.000132599
6.28468e-07
0.000210794
0.000224782
0.000210663
-7.57898e-08
0.000163213
-7.94244e-05
8.30329e-08
8.04905e-05
-4.80095e-08
0.000113281
-0.000140382
4.13112e-08
-1.78114e-09
2.70132e-09
3.15727e-07
-1.07119e-09
9.76563e-11
-4.77662e-07
6.01426e-09
-9.0421e-09
-2.53836e-06
-7.43085e-09
4.00994e-09
2.49291e-09
1.10184e-08
-1.45592e-08
1.85895e-08
-3.95102e-09
1.90791e-09
-1.2262e-08
-9.14391e-09
-2.53414e-06
2.80212e-09
-6.66998e-09
9.91453e-09
1.98505e-09
2.31851e-08
-2.64492e-09
5.57406e-09
3.17219e-09
2.94253e-07
5.67282e-10
-1.50953e-08
-4.46538e-07
1.39136e-07
-8.47139e-10
-2.12138e-07
1.74144e-09
1.55192e-08
1.16049e-05
-1.67286e-05
-1.1508e-05
3.39194e-10
6.64183e-06
-0.00017644
-8.6581e-06
7.1436e-08
2.50124e-05
2.38154e-05
2.49968e-05
2.37972e-05
-0.000267045
-4.17259e-06
6.40025e-08
-0.000376163
-1.95916e-06
3.82846e-08
-6.1195e-07
1.48199e-08
0.00291917
2.29193e-09
1.47109e-07
0.002113
3.13828e-09
3.50864e-07
0.00140831
2.08503e-09
5.74897e-07
0.000186207
-1.99525e-09
5.99089e-07
0.000181944
0.00018606
0.0001818
-2.45874e-08
5.5971e-05
9.87464e-05
-3.04746e-05
4.25963e-08
1.34918e-07
3.16805e-09
-3.84171e-09
-2.03496e-07
-4.24791e-09
-2.2182e-10
-2.54793e-06
-7.27258e-09
3.02404e-09
2.43022e-09
9.98437e-09
-1.53638e-08
2.1354e-08
-4.56861e-09
5.40553e-09
6.38488e-09
-3.75591e-10
-2.56549e-06
1.37674e-08
-9.43309e-11
-2.5597e-06
-5.33702e-09
6.81575e-10
-2.53219e-06
4.33161e-09
3.4906e-09
1.08947e-08
1.72662e-08
-1.15852e-08
7.88753e-10
-2.6917e-09
3.57615e-07
-3.48796e-09
-1.29035e-09
1.57426e-09
-5.44799e-07
1.46622e-08
6.61433e-06
-1.11946e-05
-3.07988e-06
-2.50821e-09
-0.000171279
-1.24235e-09
6.50019e-08
2.17932e-05
2.14154e-05
2.17735e-05
2.13969e-05
-0.000264487
-5.03161e-10
6.45106e-08
-0.000374742
-2.03471e-10
3.92385e-08
7.88178e-11
1.62398e-08
0.00291917
1.04867e-05
1.47029e-07
0.002113
3.40612e-05
3.50865e-07
0.00140832
6.93536e-05
5.7488e-07
0.000181933
0.000132601
6.0099e-07
0.00018622
0.000181788
0.000186067
-7.80469e-08
-3.10197e-09
9.00497e-05
3.04681e-05
5.79624e-08
2.11111e-07
2.75527e-09
-4.29421e-09
3.64072e-09
-3.22082e-07
-4.67511e-09
-1.42695e-08
-2.54034e-06
2.81815e-09
-7.54015e-09
9.77813e-09
1.18017e-09
2.32966e-08
-4.68908e-09
5.5482e-09
6.38989e-09
7.89801e-09
-2.55829e-06
1.37189e-08
7.94805e-09
-2.55178e-06
3.59179e-09
1.93334e-08
-2.52386e-06
-5.63726e-09
9.48285e-09
3.56036e-09
-1.23149e-08
1.9197e-09
-3.40714e-09
2.90457e-07
-6.133e-10
3.42445e-09
-9.6012e-10
-4.38205e-07
1.52165e-08
5.30243e-10
-1.04353e-05
3.07824e-06
-3.43852e-09
-0.00017128
8.65569e-06
6.48334e-08
2.14097e-05
2.17984e-05
2.13913e-05
2.17798e-05
-0.000264487
4.17129e-06
6.43919e-08
-0.000374743
1.95885e-06
3.91941e-08
6.1198e-07
1.62479e-08
0.00294301
1.77939e-05
1.35621e-07
0.00215026
5.72379e-05
3.36273e-07
0.00147568
0.000112787
5.55485e-07
0.000210801
0.00020212
6.32035e-07
0.000224896
0.000210662
0.000224785
-1.18794e-07
-5.59724e-05
0.000125486
7.94253e-05
9.85427e-08
2.55583e-09
2.95478e-07
-1.53497e-08
3.02269e-10
-4.48677e-07
6.01005e-09
-6.07921e-09
-2.54155e-06
4.53889e-09
1.68529e-09
9.85409e-09
1.62535e-08
-1.16059e-08
-3.52201e-10
-3.14795e-09
2.22003e-08
4.62139e-09
-2.53354e-06
-7.32081e-09
9.33643e-09
9.90355e-10
-1.26159e-08
5.80531e-09
-3.33337e-09
3.03202e-07
1.5612e-08
1.57992e-08
-4.46765e-07
2.69715e-07
3.30873e-09
8.24661e-10
-4.09193e-07
-3.948e-09
1.55211e-08
-6.61394e-06
-1.34677e-05
1.15055e-05
-1.39741e-09
-0.00017644
1.12867e-05
7.11323e-08
2.38081e-05
2.50191e-05
2.3791e-05
2.50047e-05
-0.000267047
5.99884e-06
6.38781e-08
-0.000376163
2.96978e-06
3.80925e-08
9.4609e-07
1.49105e-08
0.00298207
2.13552e-05
1.16506e-07
0.0022072
6.76661e-05
3.03334e-07
0.00156944
0.000129223
5.02115e-07
0.000260157
0.000218362
6.05716e-07
0.000259536
0.000260071
0.000259546
-8.04952e-05
-1.07525e-07
0.000191164
9.15593e-05
1.16676e-07
-1.09129e-07
-0.000113284
0.000201145
9.52096e-08
-0.000132275
1.42008e-07
2.89974e-10
-2.13125e-07
-1.81786e-09
3.59983e-07
-4.71106e-09
2.09916e-09
-1.01645e-09
-5.47882e-07
2.90576e-07
-1.58612e-09
1.16811e-09
3.33108e-09
-4.37955e-07
2.68997e-07
1.53018e-09
2.46934e-09
-4.08283e-07
-3.58071e-09
-6.63734e-06
1.13103e-05
-7.65264e-09
-1.89076e-05
6.28986e-06
1.01021e-08
-0.000182603
9.59206e-06
7.54041e-08
2.76566e-05
2.73799e-05
2.76452e-05
2.73778e-05
-0.000270408
5.8082e-06
6.16101e-08
-0.000378202
3.07844e-06
3.60751e-08
1.01838e-06
1.28135e-08
0.00302666
2.17693e-05
9.52602e-08
0.00226697
6.81966e-05
2.57006e-07
0.00165559
0.000128788
4.2273e-07
0.00116134
0.000214281
5.35699e-07
0.000185397
0.000346885
5.55431e-07
0.000206065
0.00018528
0.000206045
-8.75461e-05
-0.000105409
-8.77086e-05
-0.000105525
-9.63495e-08
-0.000134029
0.000131819
0.000142175
9.25005e-08
-7.25597e-09
-6.304e-06
-7.75612e-06
7.76132e-06
1.22468e-08
-0.000114679
1.13005e-05
9.26363e-08
1.40993e-05
1.48862e-05
1.40884e-05
1.48815e-05
-5.40341e-06
-4.30625e-06
-5.41372e-06
-4.32085e-06
-0.000186407
7.94565e-06
7.91927e-08
-0.000273095
5.07915e-06
5.88208e-08
-0.000380096
2.74962e-06
3.38395e-08
9.39633e-07
1.07975e-08
0.0030705
1.91648e-05
7.81155e-08
0.00232439
5.91409e-05
2.16345e-07
0.00173935
0.000107975
3.62269e-07
0.00129202
0.000169438
4.96684e-07
0.000986827
0.000242425
5.6853e-07
0.000212834
0.000313077
4.85459e-07
-0.00011863
-0.000136068
-0.000118734
-0.000135939
0.000204111
0.000212627
0.000204129
-1.0047e-07
-0.000206173
0.000265675
0.000107346
9.32536e-08
3.42372e-08
-0.000159841
0.000144215
-2.74306e-09
-1.55732e-08
-7.96715e-06
4.89979e-06
-3.15508e-06
2.22201e-08
-6.03696e-05
-1.31232e-06
1.32437e-07
-2.58172e-06
-2.87414e-06
-2.57807e-06
-2.87982e-06
2.54607e-06
2.00199e-06
2.54161e-06
1.99708e-06
-0.00011912
3.77754e-06
1.1364e-07
-0.000189552
4.41617e-06
8.64945e-08
-0.000275222
3.35502e-06
5.87671e-08
-0.000381622
1.96754e-06
3.28507e-08
7.0489e-07
9.7518e-09
0.00310797
1.48988e-05
6.69337e-08
0.00237018
4.5532e-05
1.85857e-07
0.00179843
8.04931e-05
3.09404e-07
0.00136595
0.000120183
4.26278e-07
0.00105645
0.000160317
4.99613e-07
0.000860199
0.00018906
4.78723e-07
0.00017965
0.00018718
4.16218e-07
-7.58309e-05
-6.41617e-05
-7.5893e-05
-6.4149e-05
0.000170257
0.000179701
0.000170371
-7.21801e-05
-3.1225e-08
0.000165661
5.92002e-05
4.81576e-08
-1.50674e-07
-0.000118878
0.000192482
5.40588e-05
1.04174e-07
-0.000153691
-1.51976e-08
-0.000137759
0.0001073
1.55245e-05
3.55394e-08
-3.94251e-08
-8.79131e-05
7.46495e-05
2.47064e-06
5.1968e-08
-4.42189e-08
-6.67423e-05
6.49478e-05
-8.33699e-06
5.69472e-08
9.94172e-06
-3.54964e-05
-3.30661e-08
2.45649e-05
-7.11506e-06
4.39535e-08
2.30304e-06
-9.45766e-06
1.78562e-07
2.29064e-06
2.02959e-06
2.28827e-06
2.03038e-06
-1.54971e-05
-1.53649e-05
-1.55047e-05
-1.53762e-05
-5.74333e-05
-3.47858e-06
1.4974e-07
-0.000119689
4.43627e-07
1.21592e-07
-0.000190815
1.81959e-06
9.00078e-08
-0.000276404
1.73721e-06
6.02162e-08
-0.000382603
1.12454e-06
3.35559e-08
4.20876e-07
9.72977e-09
0.00313661
1.04565e-05
6.08244e-08
0.00240225
3.18835e-05
1.64795e-07
0.0018347
5.49637e-05
2.69223e-07
0.00140359
7.9246e-05
3.6518e-07
0.00108468
0.000101632
4.29033e-07
0.000855066
0.00011645
4.35287e-07
0.000685102
0.000118073
3.98779e-07
0.00056222
0.000109065
3.52962e-07
-4.28839e-05