/*--------------------------------*- C++ -*----------------------------------*\
  =========                 |
  \\      /  F ield         | OpenFOAM: The Open Source CFD Toolbox
   \\    /   O peration     | Website:  https://openfoam.org
    \\  /    A nd           | Version:  11
     \\/     M anipulation  |
\*---------------------------------------------------------------------------*/
FoamFile
{
    format      ascii;
    class       volScalarField;
    location    "0.0001";
    object      rho;
}
// * * * * * * * * * * * * * * * * * * * * * * * * * * * * * * * * * * * * * //

dimensions      [1 -3 0 0 0 0 0];

internalField   nonuniform List<scalar> 
21740
(
1.42215
1.37028
1.32889
1.29621
1.27058
1.25056
1.23493
1.22274
1.21325
1.20594
1.20044
1.19651
1.19395
1.19264
1.19249
1.1935
1.19573
1.19935
1.20459
1.21182
1.42219
1.37043
1.32915
1.29656
1.27103
1.25108
1.23548
1.22324
1.21365
1.20621
1.2006
1.19658
1.19397
1.19263
1.19248
1.19349
1.19573
1.19935
1.20459
1.21182
1.42229
1.37073
1.32966
1.2973
1.27198
1.25219
1.23667
1.22433
1.2145
1.20676
1.20088
1.19668
1.19398
1.19261
1.19245
1.19347
1.19572
1.19934
1.20459
1.21182
1.42243
1.37119
1.33048
1.29849
1.27354
1.25408
1.23874
1.22622
1.21595
1.20761
1.20121
1.19671
1.19392
1.19254
1.1924
1.19344
1.19571
1.19934
1.20459
1.21182
1.42263
1.37183
1.33162
1.30023
1.27593
1.25708
1.24217
1.23161
1.22028
1.21057
1.20291
1.19756
1.19429
1.19236
1.19232
1.19341
1.1957
1.19935
1.2046
1.21182
1.42287
1.37264
1.33315
1.30267
1.2795
1.26185
1.24961
1.23637
1.22427
1.19371
1.19237
1.19226
1.19342
1.19573
1.19937
1.20461
1.21183
1.42314
1.37358
1.33501
1.30594
1.28474
1.27108
1.25822
1.19222
1.19357
1.19583
1.19942
1.20464
1.21183
1.42339
1.37449
1.33689
1.30943
1.29383
1.2803
1.1771
1.1771
1.19268
1.19351
1.19598
1.19949
1.20466
1.21184
1.42359
1.37521
1.33844
1.31237
1.29938
1.29067
1.1771
1.17711
1.17711
1.1771
1.1771
1.19396
1.19612
1.19955
1.20469
1.21184
1.4237
1.37562
1.33938
1.31437
1.30362
1.1771
1.17711
1.17711
1.17711
1.17711
1.1771
1.19447
1.19625
1.1996
1.2047
1.21184
1.4237
1.37562
1.33938
1.31437
1.30473
1.1771
1.17711
1.17711
1.17711
1.17711
1.1771
1.19461
1.19625
1.1996
1.2047
1.21184
1.42359
1.37521
1.33844
1.31237
1.3018
1.1771
1.17711
1.17711
1.1771
1.1771
1.19423
1.19612
1.19955
1.20469
1.21184
1.42339
1.37449
1.33689
1.30943
1.29687
1.28569
1.1771
1.1771
1.1771
1.1771
1.19374
1.19598
1.19949
1.20466
1.21184
1.42314
1.37358
1.33501
1.30594
1.28474
1.27565
1.19241
1.19357
1.19583
1.19942
1.20464
1.21183
1.42287
1.37264
1.33315
1.30267
1.2795
1.26185
1.25311
1.2406
1.19221
1.19226
1.19342
1.19573
1.19937
1.20461
1.21183
1.42263
1.37183
1.33162
1.30023
1.27593
1.25708
1.24217
1.23377
1.22157
1.21124
1.20294
1.1974
1.19406
1.19236
1.19232
1.19341
1.1957
1.19935
1.2046
1.21182
1.42243
1.37119
1.33048
1.29849
1.27354
1.25408
1.23874
1.22622
1.21595
1.20761
1.20121
1.19671
1.19392
1.19254
1.1924
1.19344
1.19571
1.19934
1.20459
1.21182
1.42229
1.37073
1.32966
1.2973
1.27198
1.25219
1.23667
1.22433
1.2145
1.20676
1.20088
1.19668
1.19398
1.19261
1.19245
1.19347
1.19572
1.19934
1.20459
1.21182
1.42219
1.37043
1.32915
1.29656
1.27103
1.25108
1.23548
1.22324
1.21365
1.20621
1.2006
1.19658
1.19397
1.19263
1.19248
1.19349
1.19573
1.19935
1.20459
1.21182
1.42215
1.37028
1.32889
1.29621
1.27058
1.25056
1.23493
1.22274
1.21325
1.20594
1.20044
1.19651
1.19395
1.19264
1.19249
1.1935
1.19573
1.19935
1.20459
1.21182
1.42215
1.37028
1.32889
1.29621
1.27058
1.25056
1.23493
1.22274
1.21325
1.20594
1.20044
1.19651
1.19395
1.19264
1.19249
1.19349
1.19573
1.19935
1.20459
1.21182
1.42219
1.37043
1.32915
1.29656
1.27103
1.25108
1.23548
1.22324
1.21365
1.20621
1.2006
1.19658
1.19397
1.19263
1.19248
1.19349
1.19573
1.19935
1.20459
1.21182
1.42229
1.37073
1.32967
1.29731
1.27198
1.25219
1.23666
1.22433
1.2145
1.20676
1.20088
1.19668
1.19398
1.19261
1.19245
1.19347
1.19572
1.19934
1.20459
1.21182
1.42243
1.3712
1.33048
1.29849
1.27354
1.25408
1.23873
1.22622
1.21594
1.20761
1.20121
1.19671
1.19392
1.19254
1.1924
1.19344
1.19571
1.19934
1.20459
1.21182
1.42263
1.37183
1.33163
1.30023
1.27592
1.25706
1.24215
1.23161
1.22028
1.21058
1.20292
1.19756
1.19429
1.19236
1.19232
1.19341
1.1957
1.19935
1.2046
1.21182
1.42287
1.37265
1.33315
1.30267
1.27947
1.26182
1.24958
1.23638
1.22429
1.19371
1.19237
1.19226
1.19342
1.19573
1.19937
1.20461
1.21183
1.42314
1.37358
1.33501
1.30592
1.2847
1.27104
1.25822
1.19222
1.19356
1.19583
1.19942
1.20464
1.21183
1.4234
1.37449
1.33689
1.3094
1.29379
1.28026
1.17711
1.17711
1.19268
1.1935
1.19597
1.19949
1.20466
1.21184
1.42359
1.37521
1.33842
1.31231
1.2993
1.29064
1.17711
1.17712
1.17712
1.17711
1.17711
1.19395
1.19611
1.19955
1.20469
1.21184
1.4237
1.37562
1.33936
1.31431
1.30355
1.17711
1.17712
1.17712
1.17712
1.17712
1.17711
1.19447
1.19624
1.1996
1.2047
1.21185
1.4237
1.37562
1.33936
1.31431
1.30466
1.17711
1.17712
1.17712
1.17712
1.17712
1.17711
1.19461
1.19624
1.1996
1.2047
1.21185
1.42359
1.37521
1.33842
1.31231
1.30172
1.17711
1.17712
1.17712
1.17711
1.17711
1.19423
1.19611
1.19955
1.20469
1.21184
1.4234
1.37449
1.33689
1.3094
1.29681
1.28567
1.17711
1.17711
1.17711
1.17711
1.19373
1.19597
1.19949
1.20466
1.21184
1.42314
1.37358
1.33501
1.30592
1.2847
1.27562
1.19241
1.19356
1.19583
1.19942
1.20464
1.21183
1.42287
1.37265
1.33315
1.30267
1.27947
1.26182
1.2531
1.24059
1.19221
1.19226
1.19342
1.19573
1.19937
1.20461
1.21183
1.42263
1.37183
1.33163
1.30023
1.27592
1.25706
1.24215
1.23376
1.22161
1.21125
1.20294
1.19739
1.19406
1.19236
1.19232
1.19341
1.1957
1.19935
1.2046
1.21182
1.42243
1.3712
1.33048
1.29849
1.27354
1.25408
1.23873
1.22622
1.21594
1.20761
1.20121
1.19671
1.19392
1.19254
1.1924
1.19344
1.19571
1.19934
1.20459
1.21182
1.42229
1.37073
1.32967
1.29731
1.27198
1.25219
1.23666
1.22433
1.2145
1.20676
1.20088
1.19668
1.19398
1.19261
1.19245
1.19347
1.19572
1.19934
1.20459
1.21182
1.42219
1.37043
1.32915
1.29656
1.27103
1.25108
1.23548
1.22324
1.21365
1.20621
1.2006
1.19658
1.19397
1.19263
1.19248
1.19349
1.19573
1.19935
1.20459
1.21182
1.42215
1.37028
1.32889
1.29621
1.27058
1.25056
1.23493
1.22274
1.21325
1.20594
1.20044
1.19651
1.19395
1.19264
1.19249
1.19349
1.19573
1.19935
1.20459
1.21182
1.42215
1.37028
1.32889
1.2962
1.27057
1.25055
1.23493
1.22273
1.21324
1.20593
1.20044
1.19651
1.19395
1.19263
1.19248
1.19349
1.19573
1.19935
1.20459
1.21182
1.42219
1.37043
1.32915
1.29656
1.27102
1.25107
1.23547
1.22323
1.21364
1.2062
1.20059
1.19657
1.19397
1.19263
1.19247
1.19349
1.19573
1.19935
1.20459
1.21182
1.42229
1.37073
1.32967
1.29731
1.27197
1.25219
1.23666
1.22432
1.2145
1.20676
1.20087
1.19667
1.19398
1.19261
1.19245
1.19347
1.19572
1.19934
1.20459
1.21182
1.42243
1.3712
1.33048
1.29849
1.27353
1.25407
1.23873
1.22621
1.21594
1.20761
1.20121
1.19671
1.19392
1.19253
1.1924
1.19344
1.19571
1.19934
1.20459
1.21182
1.42263
1.37183
1.33163
1.30022
1.2759
1.25705
1.24214
1.2316
1.22028
1.21058
1.20291
1.19756
1.19429
1.19236
1.19232
1.19341
1.1957
1.19935
1.2046
1.21182
1.42287
1.37265
1.33315
1.30265
1.27945
1.26181
1.24957
1.23638
1.22429
1.1937
1.19237
1.19226
1.19342
1.19573
1.19937
1.20461
1.21183
1.42314
1.37358
1.335
1.30591
1.28469
1.27103
1.25822
1.19221
1.19356
1.19582
1.19942
1.20464
1.21183
1.4234
1.37448
1.33687
1.30938
1.29377
1.28026
1.17714
1.17713
1.19268
1.1935
1.19597
1.19949
1.20466
1.21184
1.42359
1.3752
1.3384
1.31229
1.29928
1.29064
1.17714
1.17714
1.17714
1.17713
1.17713
1.19395
1.19611
1.19955
1.20469
1.21184
1.4237
1.37561
1.33933
1.31429
1.30353
1.17714
1.17714
1.17714
1.17714
1.17714
1.17713
1.19447
1.19624
1.19959
1.2047
1.21184
1.4237
1.37561
1.33933
1.31429
1.30465
1.17714
1.17714
1.17714
1.17714
1.17714
1.17713
1.19461
1.19624
1.19959
1.2047
1.21184
1.42359
1.3752
1.3384
1.31229
1.3017
1.17714
1.17714
1.17714
1.17714
1.17713
1.19423
1.19611
1.19955
1.20469
1.21184
1.4234
1.37448
1.33687
1.30938
1.29679
1.28567
1.17714
1.17713
1.17714
1.17713
1.19373
1.19597
1.19949
1.20466
1.21184
1.42314
1.37358
1.335
1.30591
1.28469
1.27561
1.19241
1.19356
1.19583
1.19942
1.20464
1.21183
1.42287
1.37265
1.33315
1.30265
1.27945
1.26181
1.2531
1.24059
1.19221
1.19226
1.19342
1.19573
1.19937
1.20461
1.21183
1.42263
1.37183
1.33163
1.30022
1.2759
1.25705
1.24214
1.23376
1.2216
1.21124
1.20293
1.19739
1.19406
1.19236
1.19232
1.19341
1.1957
1.19935
1.2046
1.21182
1.42243
1.3712
1.33048
1.29849
1.27353
1.25407
1.23873
1.22621
1.21594
1.20761
1.20121
1.19671
1.19392
1.19253
1.1924
1.19344
1.19571
1.19934
1.20459
1.21182
1.42229
1.37073
1.32967
1.29731
1.27197
1.25219
1.23666
1.22432
1.2145
1.20676
1.20087
1.19667
1.19398
1.19261
1.19245
1.19347
1.19572
1.19934
1.20459
1.21182
1.42219
1.37043
1.32915
1.29656
1.27102
1.25107
1.23547
1.22323
1.21364
1.2062
1.20059
1.19657
1.19397
1.19263
1.19247
1.19349
1.19573
1.19935
1.20459
1.21182
1.42215
1.37028
1.32889
1.2962
1.27057
1.25055
1.23493
1.22273
1.21324
1.20593
1.20044
1.19651
1.19395
1.19263
1.19248
1.19349
1.19573
1.19935
1.20459
1.21182
1.42215
1.37028
1.32889
1.2962
1.27057
1.25055
1.23492
1.22273
1.21324
1.20593
1.20043
1.1965
1.19395
1.19263
1.19248
1.19349
1.19573
1.19935
1.20459
1.21182
1.42219
1.37043
1.32914
1.29656
1.27102
1.25106
1.23546
1.22323
1.21363
1.2062
1.20059
1.19657
1.19396
1.19263
1.19247
1.19348
1.19572
1.19935
1.20459
1.21182
1.42229
1.37073
1.32966
1.2973
1.27196
1.25218
1.23665
1.22432
1.21449
1.20675
1.20087
1.19667
1.19397
1.1926
1.19245
1.19347
1.19572
1.19934
1.20459
1.21182
1.42243
1.37119
1.33047
1.29848
1.27352
1.25406
1.23872
1.2262
1.21594
1.2076
1.2012
1.19671
1.19391
1.19253
1.1924
1.19344
1.1957
1.19934
1.20459
1.21182
1.42263
1.37183
1.33162
1.3002
1.27588
1.25703
1.24213
1.2316
1.22027
1.21057
1.20291
1.19755
1.19428
1.19235
1.19231
1.19341
1.1957
1.19934
1.2046
1.21182
1.42287
1.37264
1.33313
1.30263
1.27943
1.26179
1.24956
1.23638
1.22429
1.1937
1.19236
1.19225
1.19341
1.19572
1.19936
1.20461
1.21183
1.42314
1.37356
1.33498
1.30588
1.28467
1.27102
1.25821
1.19221
1.19356
1.19582
1.19942
1.20463
1.21183
1.42339
1.37446
1.33684
1.30935
1.29375
1.28025
1.17717
1.17717
1.19268
1.1935
1.19597
1.19948
1.20466
1.21184
1.42358
1.37516
1.33836
1.31226
1.29927
1.29063
1.17717
1.17718
1.17718
1.17717
1.17717
1.19395
1.19611
1.19954
1.20468
1.21184
1.42368
1.37557
1.33928
1.31426
1.30352
1.17717
1.17718
1.17718
1.17718
1.17718
1.17717
1.19447
1.19624
1.19959
1.2047
1.21184
1.42368
1.37557
1.33928
1.31426
1.30464
1.17717
1.17718
1.17718
1.17718
1.17718
1.17717
1.19461
1.19624
1.19959
1.2047
1.21184
1.42358
1.37516
1.33836
1.31226
1.30169
1.17717
1.17718
1.17718
1.17717
1.17717
1.19423
1.19611
1.19954
1.20468
1.21184
1.42339
1.37446
1.33684
1.30935
1.29678
1.28566
1.17717
1.17717
1.17717
1.17717
1.19373
1.19597
1.19948
1.20466
1.21184
1.42314
1.37356
1.33498
1.30588
1.28467
1.2756
1.1924
1.19356
1.19582
1.19942
1.20463
1.21183
1.42287
1.37264
1.33313
1.30263
1.27943
1.26179
1.25309
1.24058
1.19221
1.19225
1.19341
1.19572
1.19936
1.20461
1.21183
1.42263
1.37183
1.33162
1.3002
1.27588
1.25703
1.24213
1.23375
1.2216
1.21124
1.20293
1.19739
1.19405
1.19235
1.19231
1.19341
1.1957
1.19934
1.2046
1.21182
1.42243
1.37119
1.33047
1.29848
1.27352
1.25406
1.23872
1.2262
1.21594
1.2076
1.2012
1.19671
1.19391
1.19253
1.1924
1.19344
1.1957
1.19934
1.20459
1.21182
1.42229
1.37073
1.32966
1.2973
1.27196
1.25218
1.23665
1.22432
1.21449
1.20675
1.20087
1.19667
1.19397
1.1926
1.19245
1.19347
1.19572
1.19934
1.20459
1.21182
1.42219
1.37043
1.32914
1.29656
1.27102
1.25106
1.23546
1.22323
1.21363
1.2062
1.20059
1.19657
1.19396
1.19263
1.19247
1.19348
1.19572
1.19935
1.20459
1.21182
1.42215
1.37028
1.32889
1.2962
1.27057
1.25055
1.23492
1.22273
1.21323
1.20593
1.20043
1.1965
1.19395
1.19263
1.19248
1.19349
1.19573
1.19935
1.20459
1.21182
1.42214
1.37027
1.32888
1.29619
1.27056
1.25053
1.23491
1.22272
1.21322
1.20592
1.20043
1.1965
1.19394
1.19262
1.19248
1.19349
1.19573
1.19934
1.20459
1.21182
1.42219
1.37042
1.32913
1.29655
1.271
1.25105
1.23545
1.22321
1.21362
1.20619
1.20058
1.19656
1.19396
1.19262
1.19247
1.19348
1.19572
1.19934
1.20459
1.21182
1.42228
1.37072
1.32965
1.29728
1.27194
1.25216
1.23663
1.2243
1.21448
1.20675
1.20086
1.19666
1.19397
1.1926
1.19244
1.19346
1.19571
1.19934
1.20459
1.21182
1.42243
1.37118
1.33046
1.29845
1.27348
1.25402
1.23869
1.22619
1.21593
1.2076
1.2012
1.1967
1.19391
1.19253
1.19239
1.19343
1.1957
1.19934
1.20459
1.21182
1.42262
1.37181
1.33159
1.30016
1.27583
1.25699
1.24211
1.23158
1.22027
1.21057
1.2029
1.19755
1.19428
1.19235
1.19231
1.1934
1.19569
1.19934
1.20459
1.21182
1.42286
1.37261
1.33308
1.30257
1.27937
1.26176
1.24955
1.23637
1.22428
1.1937
1.19236
1.19225
1.19341
1.19571
1.19936
1.20461
1.21182
1.42312
1.37352
1.33491
1.30581
1.28462
1.271
1.2582
1.19221
1.19355
1.19581
1.19941
1.20463
1.21183
1.42336
1.3744
1.33675
1.30927
1.29371
1.28024
1.17722
1.17722
1.19268
1.1935
1.19595
1.19947
1.20465
1.21183
1.42355
1.37508
1.33824
1.31217
1.29924
1.29062
1.17722
1.17723
1.17723
1.17722
1.17722
1.19395
1.1961
1.19953
1.20467
1.21184
1.42365
1.37548
1.33915
1.31416
1.3035
1.17722
1.17724
1.17724
1.17724
1.17723
1.17722
1.19447
1.19622
1.19957
1.20468
1.21184
1.42365
1.37548
1.33915
1.31416
1.30462
1.17722
1.17724
1.17724
1.17724
1.17723
1.17722
1.19461
1.19622
1.19957
1.20468
1.21184
1.42355
1.37508
1.33824
1.31217
1.30167
1.17722
1.17723
1.17723
1.17722
1.17722
1.19423
1.1961
1.19953
1.20467
1.21184
1.42336
1.3744
1.33675
1.30927
1.29675
1.28565
1.17722
1.17722
1.17722
1.17722
1.19373
1.19595
1.19947
1.20465
1.21183
1.42312
1.37352
1.33491
1.30581
1.28462
1.27558
1.1924
1.19355
1.19581
1.19941
1.20463
1.21183
1.42286
1.37261
1.33308
1.30257
1.27937
1.26176
1.25308
1.24058
1.19221
1.19225
1.19341
1.19571
1.19936
1.20461
1.21182
1.42262
1.37181
1.33159
1.30016
1.27583
1.25699
1.24211
1.23374
1.2216
1.21124
1.20292
1.19738
1.19405
1.19235
1.19231
1.1934
1.19569
1.19934
1.20459
1.21182
1.42243
1.37118
1.33046
1.29845
1.27348
1.25402
1.23869
1.22619
1.21593
1.2076
1.2012
1.1967
1.19391
1.19253
1.19239
1.19343
1.1957
1.19934
1.20459
1.21182
1.42228
1.37072
1.32965
1.29728
1.27194
1.25216
1.23663
1.2243
1.21448
1.20675
1.20086
1.19666
1.19397
1.1926
1.19244
1.19346
1.19571
1.19934
1.20459
1.21182
1.42219
1.37042
1.32913
1.29655
1.271
1.25105
1.23545
1.22321
1.21362
1.20619
1.20058
1.19656
1.19396
1.19262
1.19247
1.19348
1.19572
1.19934
1.20459
1.21182
1.42214
1.37027
1.32888
1.29619
1.27056
1.25053
1.23491
1.22272
1.21322
1.20592
1.20043
1.1965
1.19394
1.19262
1.19248
1.19349
1.19573
1.19934
1.20459
1.21182
1.42214
1.37027
1.32887
1.29618
1.27054
1.25052
1.23489
1.2227
1.21321
1.2059
1.20042
1.19649
1.19393
1.19262
1.19247
1.19348
1.19572
1.19934
1.20459
1.21182
1.42219
1.37042
1.32912
1.29653
1.27098
1.25103
1.23543
1.2232
1.21361
1.20618
1.20057
1.19656
1.19395
1.19262
1.19246
1.19348
1.19572
1.19934
1.20459
1.21182
1.42228
1.37071
1.32963
1.29726
1.27191
1.25212
1.2366
1.22428
1.21447
1.20674
1.20086
1.19666
1.19396
1.1926
1.19244
1.19346
1.19571
1.19934
1.20459
1.21182
1.42242
1.37117
1.33043
1.2984
1.27342
1.25396
1.23864
1.22616
1.21592
1.2076
1.2012
1.1967
1.19391
1.19252
1.19238
1.19342
1.19569
1.19933
1.20459
1.21182
1.42261
1.37179
1.33153
1.30007
1.27572
1.25688
1.24203
1.23155
1.22026
1.21056
1.2029
1.19754
1.19428
1.19235
1.1923
1.19339
1.19568
1.19933
1.20459
1.21182
1.42284
1.37256
1.33299
1.30243
1.2792
1.26163
1.24948
1.23637
1.22429
1.19369
1.19236
1.19224
1.19339
1.1957
1.19935
1.2046
1.21182
1.4231
1.37345
1.33478
1.30561
1.28442
1.27091
1.2582
1.19221
1.19353
1.19579
1.19939
1.20462
1.21183
1.42332
1.37429
1.33655
1.309
1.29354
1.2802
1.17728
1.17728
1.19267
1.19348
1.19592
1.19944
1.20464
1.21183
1.42349
1.37493
1.33797
1.31184
1.29909
1.2906
1.17728
1.17731
1.17731
1.17728
1.17728
1.19394
1.19605
1.19949
1.20465
1.21183
1.42358
1.37529
1.33883
1.31379
1.30336
1.17728
1.17731
1.17731
1.17731
1.1773
1.17728
1.19447
1.19618
1.19953
1.20466
1.21183
1.42358
1.37529
1.33884
1.31379
1.30448
1.17728
1.17731
1.17731
1.17731
1.1773
1.17728
1.19461
1.19618
1.19953
1.20466
1.21183
1.42349
1.37493
1.33797
1.31184
1.30152
1.17729
1.17731
1.17731
1.17729
1.17728
1.19422
1.19605
1.19949
1.20465
1.21183
1.42332
1.37429
1.33655
1.309
1.29658
1.28562
1.17728
1.17728
1.17728
1.17728
1.19372
1.19592
1.19944
1.20464
1.21183
1.4231
1.37345
1.33478
1.30561
1.28442
1.27551
1.1924
1.19353
1.19579
1.19939
1.20462
1.21183
1.42284
1.37256
1.33299
1.30243
1.2792
1.26164
1.25306
1.24058
1.1922
1.19224
1.19339
1.1957
1.19935
1.2046
1.21182
1.42261
1.37179
1.33153
1.30007
1.27572
1.25688
1.24203
1.23372
1.2216
1.21124
1.20291
1.19737
1.19404
1.19235
1.1923
1.19339
1.19568
1.19933
1.20459
1.21182
1.42242
1.37117
1.33043
1.2984
1.27342
1.25396
1.23864
1.22616
1.21592
1.2076
1.2012
1.1967
1.19391
1.19252
1.19238
1.19342
1.19569
1.19933
1.20459
1.21182
1.42228
1.37071
1.32963
1.29726
1.27191
1.25212
1.2366
1.22428
1.21447
1.20674
1.20086
1.19666
1.19396
1.1926
1.19244
1.19346
1.19571
1.19934
1.20459
1.21182
1.42219
1.37042
1.32912
1.29653
1.27098
1.25103
1.23543
1.22319
1.21361
1.20618
1.20057
1.19656
1.19395
1.19262
1.19246
1.19348
1.19572
1.19934
1.20459
1.21182
1.42214
1.37027
1.32887
1.29618
1.27054
1.25052
1.23489
1.2227
1.21321
1.2059
1.20042
1.19649
1.19393
1.19262
1.19247
1.19348
1.19572
1.19934
1.20459
1.21182
1.42214
1.37026
1.32886
1.29616
1.27052
1.2505
1.23487
1.22268
1.21319
1.20589
1.2004
1.19648
1.19392
1.19261
1.19246
1.19348
1.19572
1.19934
1.20459
1.21182
1.42219
1.37041
1.32911
1.29651
1.27096
1.251
1.2354
1.22317
1.21359
1.20616
1.20056
1.19655
1.19394
1.19261
1.19245
1.19347
1.19571
1.19934
1.20459
1.21182
1.42228
1.3707
1.32962
1.29722
1.27187
1.25207
1.23655
1.22424
1.21444
1.20673
1.20085
1.19666
1.19396
1.19259
1.19243
1.19345
1.1957
1.19933
1.20459
1.21182
1.42242
1.37115
1.33039
1.29835
1.27334
1.25386
1.23856
1.22611
1.2159
1.2076
1.20121
1.19671
1.19391
1.19252
1.19238
1.19341
1.19568
1.19933
1.20459
1.21182
1.4226
1.37176
1.33147
1.29997
1.27557
1.25669
1.24189
1.23149
1.22027
1.21059
1.20291
1.19755
1.19429
1.19235
1.19229
1.19337
1.19567
1.19932
1.20459
1.21182
1.42283
1.37251
1.33289
1.30225
1.27893
1.26135
1.24928
1.23639
1.22443
1.19368
1.19236
1.19222
1.19336
1.19568
1.19933
1.20459
1.21182
1.42307
1.37337
1.33461
1.30533
1.28402
1.27063
1.2582
1.1922
1.19349
1.19575
1.19937
1.20461
1.21182
1.42328
1.37416
1.33629
1.30855
1.29311
1.28002
1.17736
1.17736
1.19268
1.19344
1.19586
1.19941
1.20462
1.21182
1.42343
1.37475
1.33761
1.31121
1.29853
1.29046
1.17737
1.1774
1.1774
1.17737
1.17737
1.19391
1.19597
1.19944
1.20462
1.21182
1.42351
1.37508
1.33842
1.31308
1.30279
1.17736
1.1774
1.17741
1.17741
1.1774
1.17736
1.19446
1.19608
1.19947
1.20463
1.21182
1.42351
1.37508
1.33842
1.31308
1.30392
1.17736
1.1774
1.17741
1.17741
1.1774
1.17737
1.19461
1.19608
1.19947
1.20463
1.21182
1.42343
1.37475
1.33761
1.31121
1.30095
1.17737
1.1774
1.1774
1.17737
1.17736
1.19421
1.19597
1.19944
1.20462
1.21182
1.42328
1.37416
1.33629
1.30855
1.29609
1.28554
1.17737
1.17736
1.17737
1.17736
1.19367
1.19586
1.19941
1.20462
1.21182
1.42307
1.37337
1.33461
1.30533
1.28402
1.27525
1.1924
1.19349
1.19575
1.19937
1.20461
1.21182
1.42283
1.37251
1.33289
1.30225
1.27893
1.26135
1.25297
1.24054
1.19221
1.19222
1.19336
1.19568
1.19933
1.20459
1.21182
1.4226
1.37176
1.33147
1.29997
1.27557
1.25669
1.24189
1.23364
1.22175
1.21128
1.2029
1.19731
1.19405
1.19235
1.19229
1.19337
1.19567
1.19932
1.20459
1.21182
1.42242
1.37115
1.33039
1.29835
1.27334
1.25386
1.23856
1.22611
1.2159
1.2076
1.20121
1.19671
1.19391
1.19252
1.19238
1.19341
1.19568
1.19933
1.20459
1.21182
1.42228
1.3707
1.32962
1.29722
1.27187
1.25207
1.23655
1.22424
1.21444
1.20673
1.20085
1.19666
1.19396
1.19259
1.19243
1.19345
1.1957
1.19933
1.20459
1.21182
1.42219
1.37041
1.32911
1.29651
1.27096
1.251
1.2354
1.22317
1.21359
1.20616
1.20056
1.19655
1.19394
1.19261
1.19245
1.19347
1.19571
1.19934
1.20459
1.21182
1.42214
1.37026
1.32886
1.29616
1.27052
1.2505
1.23487
1.22268
1.21319
1.20589
1.2004
1.19648
1.19392
1.19261
1.19246
1.19348
1.19572
1.19934
1.20459
1.21182
1.42214
1.37025
1.32885
1.29615
1.2705
1.25047
1.23485
1.22266
1.21317
1.20587
1.20038
1.19646
1.19391
1.1926
1.19245
1.19347
1.19571
1.19934
1.20459
1.21182
1.42218
1.3704
1.3291
1.29649
1.27094
1.25097
1.23537
1.22314
1.21356
1.20614
1.20054
1.19653
1.19393
1.1926
1.19245
1.19346
1.19571
1.19933
1.20459
1.21182
1.42228
1.37069
1.3296
1.2972
1.27184
1.25204
1.23652
1.22421
1.21442
1.20671
1.20084
1.19664
1.19395
1.19258
1.19242
1.19344
1.1957
1.19933
1.20458
1.21182
1.42241
1.37114
1.33037
1.29832
1.2733
1.25382
1.23851
1.22608
1.21588
1.20758
1.2012
1.1967
1.1939
1.19251
1.19237
1.19341
1.19568
1.19932
1.20458
1.21182
1.4226
1.37174
1.33144
1.29992
1.2755
1.25661
1.24182
1.23143
1.22027
1.21061
1.20291
1.19755
1.19429
1.19234
1.19228
1.19336
1.19566
1.19932
1.20458
1.21182
1.42282
1.37249
1.33285
1.30218
1.27882
1.26122
1.24913
1.23642
1.22455
1.17737
1.17737
1.17736
1.19367
1.19236
1.19221
1.19335
1.19567
1.19933
1.20459
1.21182
1.42306
1.37333
1.33455
1.30523
1.28386
1.27043
1.25819
1.17737
1.17737
1.17739
1.17739
1.17738
1.17737
1.17736
1.19219
1.19347
1.19574
1.19936
1.2046
1.21182
1.42327
1.37411
1.3362
1.30839
1.29281
1.27985
1.17737
1.17738
1.17742
1.17745
1.17746
1.17744
1.1774
1.17737
1.19268
1.1934
1.19584
1.1994
1.20461
1.21182
1.42341
1.37468
1.33749
1.31099
1.29812
1.29031
1.17738
1.17743
1.17752
1.17753
1.17753
1.17751
1.17745
1.17739
1.17736
1.19389
1.19594
1.19943
1.20461
1.21181
1.42348
1.37501
1.33827
1.31282
1.30237
1.17737
1.17739
1.17745
1.17753
1.17754
1.17754
1.17753
1.17747
1.17742
1.17737
1.19446
1.19605
1.19945
1.20462
1.21181
1.42348
1.37501
1.33827
1.31282
1.30352
1.17737
1.17739
1.17746
1.17753
1.17754
1.17754
1.17753
1.17747
1.17742
1.17737
1.1946
1.19605
1.19945
1.20462
1.21181
1.42341
1.37468
1.33749
1.31099
1.30053
1.17737
1.17738
1.17744
1.17752
1.17753
1.17753
1.17751
1.17746
1.1774
1.17736
1.1942
1.19594
1.19943
1.20461
1.21181
1.42327
1.37411
1.3362
1.30839
1.29575
1.28546
1.17737
1.1774
1.17745
1.17747
1.17748
1.17746
1.17743
1.17738
1.17736
1.19364
1.19584
1.1994
1.20461
1.21182
1.42306
1.37333
1.33455
1.30523
1.28386
1.27506
1.17737
1.17737
1.17739
1.17742
1.17742
1.17741
1.17738
1.17736
1.1924
1.19347
1.19574
1.19936
1.2046
1.21182
1.42282
1.37249
1.33285
1.30218
1.27882
1.26122
1.25291
1.24049
1.17737
1.17737
1.17737
1.17737
1.17736
1.19221
1.19221
1.19335
1.19567
1.19933
1.20459
1.21182
1.4226
1.37174
1.33144
1.29992
1.2755
1.25661
1.24182
1.23358
1.22188
1.2113
1.20288
1.19726
1.19405
1.19234
1.19228
1.19336
1.19566
1.19932
1.20458
1.21182
1.42241
1.37114
1.33037
1.29832
1.2733
1.25382
1.23851
1.22608
1.21588
1.20759
1.2012
1.1967
1.1939
1.19251
1.19237
1.19341
1.19568
1.19932
1.20458
1.21182
1.42228
1.37069
1.3296
1.2972
1.27184
1.25204
1.23652
1.22421
1.21442
1.20671
1.20084
1.19664
1.19395
1.19258
1.19242
1.19344
1.1957
1.19933
1.20458
1.21182
1.42218
1.3704
1.3291
1.29649
1.27094
1.25097
1.23537
1.22314
1.21356
1.20614
1.20054
1.19653
1.19393
1.1926
1.19245
1.19346
1.19571
1.19933
1.20459
1.21182
1.42214
1.37025
1.32885
1.29615
1.2705
1.25047
1.23485
1.22266
1.21317
1.20587
1.20038
1.19646
1.19391
1.1926
1.19245
1.19347
1.19571
1.19934
1.20459
1.21182
1.42213
1.37025
1.32883
1.29613
1.27048
1.25045
1.23482
1.22263
1.21314
1.20584
1.20036
1.19644
1.19389
1.19258
1.19244
1.19346
1.19571
1.19933
1.20458
1.21182
1.42218
1.37039
1.32908
1.29647
1.27091
1.25095
1.23535
1.22312
1.21354
1.20611
1.20052
1.19651
1.19391
1.19258
1.19244
1.19345
1.1957
1.19933
1.20458
1.21182
1.42227
1.37068
1.32959
1.29719
1.27183
1.25203
1.23651
1.22419
1.21439
1.20668
1.20081
1.19662
1.19393
1.19256
1.19241
1.19344
1.19569
1.19933
1.20458
1.21182
1.42241
1.37113
1.33037
1.29832
1.27331
1.25384
1.23852
1.22607
1.21585
1.20754
1.20115
1.19666
1.19387
1.19249
1.19236
1.1934
1.19568
1.19932
1.20458
1.21182
1.4226
1.37174
1.33146
1.29996
1.27557
1.25671
1.24188
1.23143
1.22021
1.21054
1.20287
1.19752
1.19426
1.19232
1.19227
1.19336
1.19566
1.19932
1.20458
1.21182
1.42282
1.37251
1.33289
1.30227
1.27899
1.26142
1.24923
1.23633
1.22437
1.19366
1.19234
1.19221
1.19336
1.19567
1.19933
1.20459
1.21182
1.42307
1.37337
1.33464
1.3054
1.28414
1.27058
1.25813
1.19219
1.1935
1.19576
1.19937
1.20461
1.21182
1.42329
1.37418
1.33636
1.3087
1.29306
1.27995
1.17761
1.17763
1.19266
1.19343
1.19588
1.19942
1.20462
1.21182
1.42345
1.37479
1.33772
1.31146
1.29848
1.29039
1.17763
1.17771
1.1777
1.17764
1.17761
1.19391
1.196
1.19946
1.20463
1.21182
1.42353
1.37514
1.33855
1.31336
1.30274
1.17762
1.17771
1.17772
1.17771
1.1777
1.17763
1.19446
1.19612
1.19949
1.20464
1.21182
1.42353
1.37514
1.33855
1.31336
1.30387
1.17763
1.17771
1.17772
1.17771
1.1777
1.17763
1.1946
1.19612
1.19949
1.20464
1.21182
1.42345
1.37479
1.33772
1.31146
1.3009
1.17765
1.17771
1.1777
1.17765
1.17763
1.1942
1.19601
1.19946
1.20463
1.21182
1.42329
1.37418
1.33636
1.3087
1.29604
1.28547
1.17761
1.17764
1.17764
1.17763
1.19366
1.19588
1.19942
1.20462
1.21182
1.42307
1.37337
1.33464
1.3054
1.28414
1.27519
1.19239
1.1935
1.19576
1.19937
1.20461
1.21182
1.42282
1.37251
1.33289
1.30227
1.27899
1.26142
1.25291
1.24048
1.19219
1.19221
1.19336
1.19567
1.19933
1.20459
1.21182
1.4226
1.37174
1.33146
1.29996
1.27557
1.25671
1.24188
1.23358
1.2217
1.21123
1.20285
1.19728
1.19402
1.19232
1.19227
1.19336
1.19566
1.19932
1.20458
1.21182
1.42241
1.37113
1.33037
1.29832
1.27331
1.25384
1.23852
1.22607
1.21585
1.20754
1.20115
1.19667
1.19387
1.19249
1.19236
1.1934
1.19568
1.19932
1.20458
1.21182
1.42227
1.37068
1.32959
1.29719
1.27183
1.25203
1.23651
1.22419
1.21439
1.20668
1.20081
1.19662
1.19393
1.19256
1.19241
1.19344
1.19569
1.19933
1.20458
1.21182
1.42218
1.37039
1.32908
1.29647
1.27091
1.25095
1.23535
1.22312
1.21354
1.20612
1.20052
1.19651
1.19391
1.19258
1.19244
1.19345
1.1957
1.19933
1.20458
1.21182
1.42213
1.37025
1.32883
1.29613
1.27048
1.25045
1.23482
1.22263
1.21314
1.20584
1.20036
1.19644
1.19389
1.19258
1.19244
1.19346
1.19571
1.19933
1.20458
1.21182
1.42213
1.37023
1.32881
1.2961
1.27045
1.25041
1.23479
1.22259
1.21311
1.20581
1.20033
1.19641
1.19387
1.19257
1.19243
1.19345
1.1957
1.19933
1.20458
1.21182
1.42218
1.37038
1.32906
1.29645
1.27089
1.25092
1.23532
1.22309
1.2135
1.20608
1.20048
1.19648
1.19389
1.19257
1.19242
1.19345
1.1957
1.19933
1.20458
1.21182
1.42227
1.37067
1.32957
1.29717
1.27182
1.25202
1.23649
1.22417
1.21436
1.20664
1.20077
1.19658
1.1939
1.19255
1.1924
1.19343
1.19569
1.19932
1.20458
1.21182
1.42241
1.37113
1.33036
1.29833
1.27333
1.25386
1.23853
1.22605
1.2158
1.20749
1.2011
1.19662
1.19384
1.19247
1.19235
1.1934
1.19567
1.19932
1.20458
1.21182
1.4226
1.37175
1.33148
1.30001
1.27565
1.2568
1.24194
1.23143
1.22015
1.21046
1.20281
1.19747
1.19422
1.1923
1.19227
1.19336
1.19566
1.19932
1.20458
1.21182
1.42283
1.37253
1.33295
1.30238
1.27916
1.26156
1.24935
1.23624
1.22417
1.19364
1.19231
1.19221
1.19337
1.19569
1.19934
1.20459
1.21182
1.42309
1.37343
1.33475
1.30559
1.28439
1.27077
1.25806
1.19218
1.19352
1.19578
1.19939
1.20461
1.21182
1.42332
1.37428
1.33655
1.30902
1.29341
1.28006
1.17786
1.17785
1.19265
1.19346
1.19592
1.19945
1.20464
1.21183
1.4235
1.37494
1.33801
1.3119
1.29895
1.29045
1.17786
1.17793
1.17793
1.17785
1.17785
1.19393
1.19606
1.1995
1.20465
1.21183
1.42359
1.37532
1.3389
1.31388
1.30322
1.17787
1.17794
1.17794
1.17793
1.17792
1.17785
1.19446
1.19619
1.19954
1.20466
1.21183
1.42359
1.37532
1.3389
1.31388
1.30434
1.17787
1.17794
1.17794
1.17793
1.17792
1.17785
1.1946
1.19619
1.19954
1.20466
1.21183
1.4235
1.37494
1.33801
1.3119
1.30138
1.17787
1.17793
1.17793
1.17786
1.17785
1.19421
1.19606
1.1995
1.20465
1.21183
1.42332
1.37428
1.33655
1.30902
1.29645
1.28548
1.17786
1.17786
1.17786
1.17785
1.1937
1.19592
1.19945
1.20464
1.21183
1.42309
1.37343
1.33475
1.30559
1.28439
1.27537
1.19237
1.19352
1.19578
1.19939
1.20461
1.21182
1.42283
1.37253
1.33295
1.30238
1.27916
1.26156
1.25292
1.24045
1.19216
1.19221
1.19337
1.19569
1.19934
1.20459
1.21182
1.4226
1.37175
1.33148
1.30001
1.27565
1.2568
1.24194
1.23359
1.22149
1.21113
1.20283
1.1973
1.19399
1.1923
1.19227
1.19336
1.19566
1.19932
1.20458
1.21182
1.42241
1.37113
1.33036
1.29833
1.27333
1.25386
1.23853
1.22605
1.2158
1.20749
1.2011
1.19662
1.19384
1.19247
1.19235
1.1934
1.19567
1.19932
1.20458
1.21182
1.42227
1.37067
1.32957
1.29717
1.27182
1.25201
1.23649
1.22417
1.21436
1.20664
1.20077
1.19658
1.1939
1.19255
1.1924
1.19343
1.19569
1.19932
1.20458
1.21182
1.42218
1.37038
1.32906
1.29645
1.27089
1.25092
1.23532
1.22309
1.2135
1.20608
1.20049
1.19648
1.19389
1.19257
1.19242
1.19345
1.1957
1.19933
1.20458
1.21182
1.42213
1.37023
1.32881
1.2961
1.27045
1.25041
1.23479
1.22259
1.21311
1.20581
1.20033
1.19641
1.19387
1.19257
1.19243
1.19345
1.1957
1.19933
1.20458
1.21182
1.42213
1.37022
1.32879
1.29607
1.27041
1.25037
1.23474
1.22255
1.21306
1.20577
1.20029
1.19638
1.19385
1.19255
1.19242
1.19344
1.19569
1.19932
1.20458
1.21181
1.42217
1.37036
1.32904
1.29642
1.27085
1.25088
1.23527
1.22304
1.21346
1.20604
1.20045
1.19645
1.19386
1.19255
1.19241
1.19343
1.19569
1.19932
1.20458
1.21181
1.42226
1.37066
1.32955
1.29714
1.27178
1.25198
1.23645
1.22412
1.21431
1.20659
1.20073
1.19655
1.19387
1.19252
1.19238
1.19342
1.19568
1.19932
1.20458
1.21182
1.42241
1.37111
1.33035
1.29831
1.27331
1.25384
1.2385
1.226
1.21575
1.20743
1.20106
1.19659
1.19381
1.19245
1.19233
1.19339
1.19567
1.19931
1.20458
1.21182
1.4226
1.37174
1.33147
1.3
1.27565
1.25679
1.2419
1.23139
1.22009
1.21041
1.20277
1.19744
1.19419
1.19228
1.19226
1.19336
1.19566
1.19932
1.20458
1.21182
1.42283
1.37253
1.33296
1.30241
1.27918
1.26154
1.24933
1.23617
1.22409
1.19361
1.19229
1.1922
1.19337
1.19569
1.19934
1.2046
1.21182
1.4231
1.37344
1.33478
1.30564
1.28441
1.27077
1.25798
1.19217
1.19352
1.19579
1.19939
1.20462
1.21183
1.42334
1.37432
1.33662
1.3091
1.29349
1.28
1.17813
1.17812
1.19264
1.19346
1.19594
1.19946
1.20464
1.21183
1.42352
1.37501
1.33812
1.312
1.29901
1.29039
1.17814
1.17821
1.1782
1.17812
1.17811
1.19392
1.19608
1.19952
1.20466
1.21183
1.42362
1.37541
1.33904
1.31399
1.30327
1.17814
1.17822
1.17821
1.1782
1.17819