/*--------------------------------*- C++ -*----------------------------------*\
  =========                 |
  \\      /  F ield         | OpenFOAM: The Open Source CFD Toolbox
   \\    /   O peration     | Website:  https://openfoam.org
    \\  /    A nd           | Version:  11
     \\/     M anipulation  |
\*---------------------------------------------------------------------------*/
FoamFile
{
    format      ascii;
    class       volVectorField;
    location    "0.0001";
    object      U;
}
// * * * * * * * * * * * * * * * * * * * * * * * * * * * * * * * * * * * * * //

dimensions      [0 1 -1 0 0 0 0];

internalField   nonuniform List<vector> 
21740
(
(53.1803 -0.0218541 0.000296444)
(42.633 -0.0698972 0.000765636)
(33.8613 -0.120897 0.0017166)
(26.6554 -0.172276 0.0024075)
(20.865 -0.218331 0.00279736)
(16.2925 -0.250461 0.00271608)
(12.7177 -0.258147 0.00225939)
(9.91644 -0.234244 0.0017068)
(7.68489 -0.18541 0.00133852)
(5.85693 -0.124711 0.00109607)
(4.31161 -0.0683503 0.000927873)
(2.96905 -0.0284557 0.000800967)
(1.77277 -0.00679556 0.000693325)
(0.671381 0.00191823 0.00062128)
(-0.392301 0.00359258 0.000583546)
(-1.4835 0.002529 0.000548281)
(-2.67552 0.00107232 0.000466964)
(-4.05053 0.000146897 0.000339432)
(-5.70149 -0.000174274 0.00016177)
(-7.73578 -8.68272e-05 2.3629e-05)
(53.0894 -0.0667955 0.000663459)
(42.5335 -0.21362 0.00175884)
(33.7565 -0.370521 0.00322241)
(26.5536 -0.531098 0.00430962)
(20.7815 -0.679276 0.00458105)
(16.2487 -0.787162 0.0039663)
(12.731 -0.818827 0.00298868)
(9.98757 -0.741036 0.00203748)
(7.79469 -0.579202 0.00133266)
(5.97504 -0.37744 0.00102623)
(4.4094 -0.193591 0.000891676)
(3.03267 -0.0698388 0.000750404)
(1.80515 -0.0083978 0.000620193)
(0.68354 0.0129165 0.000569914)
(-0.390047 0.0140136 0.000623644)
(-1.48461 0.00854417 0.000678347)
(-2.67689 0.00319858 0.000648989)
(-4.05122 0.000108961 0.000514163)
(-5.70156 -0.000809792 0.000267196)
(-7.73561 -0.000325184 5.30977e-05)
(52.8965 -0.114524 0.00122835)
(42.3211 -0.369071 0.00348561)
(33.5277 -0.649532 0.00573903)
(26.3237 -0.948445 0.00716369)
(20.5853 -1.23923 0.00683453)
(16.139 -1.46601 0.00498405)
(12.7562 -1.55027 0.00302819)
(10.1543 -1.38671 0.00195052)
(8.05414 -1.05484 0.0012564)
(6.24908 -0.636509 0.00116572)
(4.62632 -0.269294 0.00125583)
(3.16208 -0.0518038 0.00103061)
(1.86189 0.030751 0.000712689)
(0.698905 0.0467326 0.000549116)
(-0.391415 0.031968 0.000678446)
(-1.48924 0.0143177 0.000860664)
(-2.67982 0.00278224 0.00094515)
(-4.05179 -0.0022261 0.000806109)
(-5.70053 -0.00278949 0.000489829)
(-7.73396 -0.000970273 0.0001277)
(52.5948 -0.16582 0.00213075)
(41.9806 -0.539998 0.00584039)
(33.1444 -0.970104 0.00896321)
(25.9155 -1.45982 0.00982917)
(20.2115 -1.97416 0.00717601)
(15.9118 -2.40635 0.00235127)
(12.787 -2.609 0.000719277)
(10.4882 -2.38079 0.000313273)
(8.56202 -1.75286 0.00179403)
(6.77477 -0.926012 0.00279574)
(5.0086 -0.268328 0.00273934)
(3.34914 0.0592339 0.00256749)
(1.91799 0.103895 0.00161)
(0.694032 0.118537 0.000540631)
(-0.410256 0.0549757 0.000666804)
(-1.50192 0.0135255 0.000939007)
(-2.68429 -0.0049899 0.00124477)
(-4.05097 -0.00954984 0.00120018)
(-5.69716 -0.00740188 0.000818593)
(-7.72993 -0.00238601 0.000268932)
(52.1775 -0.216344 0.00329009)
(41.4939 -0.715538 0.0088711)
(32.5637 -1.32402 0.0116176)
(25.2458 -2.08259 0.00959043)
(19.532 -2.96875 0.000739222)
(15.4627 -3.85952 -0.0109427)
(12.6587 -4.32547 -0.00876248)
(11.9989 -5.2994 0.0126065)
(9.79629 -3.71133 0.0103637)
(8.0504 -2.41106 0.0204788)
(6.00299 -1.03439 0.0135805)
(3.91752 -0.336933 0.0143822)
(2.15251 -0.00583425 0.00479491)
(0.546669 0.142128 0.00115944)
(-0.473032 0.0538755 0.000314153)
(-1.52598 -0.0116223 0.000482113)
(-2.68747 -0.0285362 0.00125237)
(-4.04548 -0.0248912 0.00154109)
(-5.68898 -0.0154978 0.00123269)
(-7.72161 -0.00473214 0.000427351)
(51.6512 -0.255003 0.0046192)
(40.8557 -0.858673 0.011388)
(31.7474 -1.64696 0.0121546)
(24.2029 -2.75457 0.00396572)
(18.3364 -4.30893 -0.0153559)
(14.2256 -6.07735 -0.0361443)
(13.6281 -7.79471 -0.0620301)
(12.7072 -8.22528 0.0433558)
(9.06788 -3.53958 -0.0390458)
(1.91172 0.448449 0.00235118)
(0.638297 0.140617 0.00366887)
(-0.592052 -0.0773686 -0.00106335)
(-1.55048 -0.0931579 -0.000918452)
(-2.67953 -0.0739753 0.000664175)
(-4.02962 -0.047229 0.0016375)
(-5.67285 -0.0255528 0.00158481)
(-7.70706 -0.00743753 0.000615436)
(51.0469 -0.268221 0.00536476)
(40.0914 -0.9167 0.0126842)
(30.698 -1.79108 0.0106466)
(22.7085 -3.07863 -0.00235998)
(16.4131 -5.47938 -0.0341641)
(13.9521 -9.86815 -0.0739095)
(9.06336 -8.11505 -0.0135018)
(-0.47709 -0.20655 -0.00531603)
(-1.55089 -0.24334 -0.00293965)
(-2.64275 -0.111317 -7.28723e-05)
(-3.99632 -0.0657769 0.00147198)
(-5.64576 -0.0342308 0.00177991)
(-7.68498 -0.00966203 0.000724815)
(50.429 -0.250143 0.00609782)
(39.2679 -0.874898 0.0128506)
(29.473 -1.77684 0.00552013)
(20.9647 -3.21939 -0.0135736)
(16.2992 -8.54213 -0.0476959)
(11.4892 -10.0365 -0.104003)
(-7.28415e-05 0.000116496 -0.00357233)
(0.00010226 -0.000120886 -0.00361104)
(-0.425174 -0.471925 -0.000186666)
(-1.15934 -0.162921 -0.00660564)
(-2.56626 -0.16645 -0.00153154)
(-3.93563 -0.0880629 0.000814422)
(-5.6057 -0.0419677 0.00182498)
(-7.65611 -0.0112912 0.000835504)
(49.9024 -0.182103 0.00643168)
(38.5256 -0.649101 0.0116542)
(28.2605 -1.36177 -0.00312192)
(18.7143 -2.59258 -0.0371094)
(12.5449 -5.09444 -0.0995566)
(4.13967 -8.07177 0.0135268)
(0.000172284 0.000162509 -0.00362713)
(0.00031777 0.000207944 -0.0073782)
(-0.00018488 0.000220564 -0.00736033)
(0.000744128 -0.000386543 -0.00365436)
(-0.00026249 0.000329379 -0.00356594)
(-0.898293 -0.561341 -0.0139128)
(-2.39246 -0.167412 -0.00460021)
(-3.85292 -0.0812939 -0.000343847)
(-5.56004 -0.0365865 0.00169668)
(-7.62656 -0.00956092 0.000908403)
(49.5965 -0.0633177 0.0065354)
(38.0807 -0.22279 0.0108484)
(27.4984 -0.454019 -0.00740902)
(17.2791 -0.876842 -0.0413722)
(9.68642 -2.58381 -0.109065)
(0.000146273 -0.000123545 -0.0035814)
(0.000268558 0.000229779 -0.00739208)
(3.9194e-05 -3.99081e-05 -0.00739873)
(0.000101678 -4.05722e-05 -0.00738396)
(-0.000176519 0.000258719 -0.00735071)
(0.000546852 -0.000237619 -0.00363541)
(-0.42965 -0.356298 -0.00785058)
(-2.27139 -0.0539877 -0.0052999)
(-3.79514 -0.0249811 -0.000935315)
(-5.52988 -0.0119459 0.00159138)
(-7.60779 -0.00319201 0.00092785)
(49.5965 0.0633719 0.00653529)
(38.0807 0.222864 0.0108489)
(27.4983 0.454058 -0.00740833)
(17.2791 0.876803 -0.041349)
(8.73804 0.899195 -0.0910964)
(-0.000125332 5.62991e-05 -0.00362181)
(0.000265074 -0.000247076 -0.00738761)
(3.3982e-05 1.9895e-05 -0.00739933)
(9.88485e-05 1.64884e-05 -0.00737606)
(-0.000157936 -0.000263669 -0.00734581)
(0.000686662 0.000180598 -0.00364999)
(-0.377272 0.123637 -0.00727984)
(-2.27137 0.0539451 -0.00530062)
(-3.79513 0.0249593 -0.00094353)
(-5.52987 0.0119381 0.00158521)
(-7.60779 0.00319271 0.000927951)
(49.9025 0.182133 0.0064312)
(38.5255 0.649148 0.0116544)
(28.2604 1.3618 -0.0031187)
(18.7142 2.59256 -0.0371327)
(10.1889 4.05763 -0.110998)
(-0.000397347 0.000700643 -0.00366934)
(0.000327864 -0.000217697 -0.00737897)
(-0.000167213 -0.000204569 -0.00735673)
(0.000903887 0.000855977 -0.00362453)
(3.28834e-05 -0.000136592 -0.00363113)
(-0.555788 0.503346 -0.0121278)
(-2.39236 0.167382 -0.00460769)
(-3.85289 0.0812792 -0.000361556)
(-5.56003 0.0365816 0.00168623)
(-7.62655 0.00956088 0.000908665)
(50.4291 0.25014 0.0060977)
(39.2679 0.874901 0.0128515)
(29.4729 1.77686 0.00552366)
(20.9647 3.21942 -0.0135637)
(13.7521 5.44365 -0.0701236)
(5.4526 10.4379 -0.059186)
(0.00030274 -0.000257232 -0.00358325)
(-0.000169536 0.000553604 -0.00365291)
(0.000277474 0.000648525 -0.00365574)
(-9.32031e-05 1.5324e-05 -0.00363038)
(-1.05381 0.421091 -0.00797954)
(-2.56626 0.166438 -0.0015368)
(-3.9356 0.0880611 0.000807432)
(-5.60567 0.0419659 0.00181663)
(-7.6561 0.0112908 0.00083577)
(51.047 0.268195 0.00536504)
(40.0914 0.916671 0.0126855)
(30.698 1.79109 0.0106486)
(22.7084 3.07871 -0.00235819)
(16.4134 5.47939 -0.0341818)
(10.6033 7.75082 -0.0533958)
(-0.388888 0.449247 -0.00275179)
(-1.55077 0.243392 -0.00294785)
(-2.64267 0.111347 -7.3198e-05)
(-3.99628 0.0657917 0.00147224)
(-5.64574 0.0342384 0.00178001)
(-7.68497 0.00966186 0.000724838)
(51.6512 0.254964 0.00461972)
(40.8557 0.858618 0.0113893)
(31.7474 1.64693 0.0121559)
(24.2029 2.75458 0.00396518)
(18.3364 4.30902 -0.0154137)
(14.2247 6.07705 -0.0362045)
(12.6376 9.7371 -0.0139669)
(10.05 5.91181 -0.0512367)
(0.440656 -0.173008 0.00177615)
(-0.592256 0.0778757 -0.00107362)
(-1.5505 0.0932978 -0.000911617)
(-2.67951 0.0740348 0.000668846)
(-4.02961 0.047256 0.00163835)
(-5.67284 0.0255636 0.00158512)
(-7.70706 0.00743764 0.000615445)
(52.1775 0.216309 0.00329057)
(41.4939 0.715482 0.00887196)
(32.5637 1.32397 0.0116181)
(25.2458 2.08257 0.00958981)
(19.532 2.96878 0.000681148)
(15.4626 3.85958 -0.0109921)
(12.6587 4.32585 -0.00877088)
(10.8232 4.29432 -0.0115311)
(11.0905 5.33384 0.0913053)
(8.93526 0.996667 0.00493849)
(6.45237 -0.000257243 0.00160642)
(4.05361 -0.648006 -0.0188476)
(2.0914 -0.531643 0.00391127)
(0.546779 -0.142244 0.00114742)
(-0.473024 -0.0538152 0.000315348)
(-1.52604 0.0117029 0.000492948)
(-2.6875 0.0285848 0.00125952)
(-4.0455 0.0249144 0.00154333)
(-5.68899 0.0155037 0.00123097)
(-7.72161 0.0047322 0.000427385)
(52.5947 0.165799 0.00213108)
(41.9806 0.539963 0.00584076)
(33.1444 0.970077 0.00896326)
(25.9156 1.45981 0.00982914)
(20.2115 1.97417 0.00717721)
(15.9119 2.40644 0.0023552)
(12.787 2.60913 0.000720175)
(10.4883 2.38087 0.000304006)
(8.56187 1.75302 0.00178229)
(6.77449 0.92616 0.00276138)
(5.00846 0.268441 0.00270228)
(3.34924 -0.0591282 0.00255847)
(1.91819 -0.104061 0.00161264)
(0.694138 -0.118563 0.000544712)
(-0.41022 -0.0550134 0.000667435)
(-1.50194 -0.013525 0.000940699)
(-2.68432 0.00500076 0.00124637)
(-4.051 0.00955783 0.00119963)
(-5.69718 0.00740935 0.000820901)
(-7.72993 0.00239234 0.000268852)
(52.8964 0.114516 0.00122858)
(42.3212 0.369058 0.00348576)
(33.5277 0.649526 0.00573899)
(26.3237 0.948453 0.00716399)
(20.5853 1.23926 0.00683629)
(16.139 1.46606 0.00498772)
(12.7562 1.55032 0.00303126)
(10.1543 1.3867 0.00195019)
(8.05401 1.05479 0.0012433)
(6.24891 0.636546 0.00114587)
(4.62625 0.269385 0.00124478)
(3.16213 0.0519171 0.00102502)
(1.86201 -0.0307436 0.000716778)
(0.698991 -0.0467522 0.000555499)
(-0.391377 -0.0319988 0.000680737)
(-1.48925 -0.014336 0.00086374)
(-2.67984 -0.00278873 0.000948508)
(-4.05182 0.0022272 0.000808003)
(-5.70055 0.00277333 0.000511994)
(-7.73396 0.000955876 0.000146622)
(53.0894 0.0667945 0.000663685)
(42.5336 0.213619 0.00175903)
(33.7566 0.370522 0.0032225)
(26.5537 0.531105 0.00431002)
(20.7816 0.67929 0.00458244)
(16.2487 0.787182 0.0039689)
(12.731 0.818844 0.00299127)
(9.98751 0.741031 0.00203834)
(7.79458 0.579191 0.00132726)
(5.97492 0.377471 0.0010177)
(4.40934 0.193649 0.000885888)
(3.03269 0.0698963 0.00074725)
(1.80522 0.00841504 0.000619188)
(0.683602 -0.0129239 0.000570833)
(-0.390013 -0.0140336 0.000625247)
(-1.4846 -0.00856004 0.000680328)
(-2.67691 -0.00320638 0.000654674)
(-4.05124 -0.000110585 0.000513012)
(-5.70158 0.000825664 0.00028937)
(-7.73561 0.000339176 7.20299e-05)
(53.1803 0.0218544 0.000296842)
(42.633 0.0698978 0.00076614)
(33.8614 0.120899 0.00171716)
(26.6555 0.172278 0.00240818)
(20.8651 0.218335 0.00279812)
(16.2926 0.250466 0.00271766)
(12.7177 0.258149 0.00226108)
(9.91638 0.234242 0.00170736)
(7.68479 0.185408 0.00133694)
(5.85683 0.124721 0.00109257)
(4.31156 0.0683692 0.000924023)
(2.96905 0.0284737 0.000798271)
(1.77282 0.00680158 0.000692084)
(0.671429 -0.0019198 0.000621169)
(-0.392272 -0.00359938 0.00058413)
(-1.48349 -0.0025353 0.000549507)
(-2.67553 -0.00107349 0.000466604)
(-4.05054 -0.000149305 0.000339753)
(-5.70151 0.000169845 0.000161944)
(-7.73578 8.02954e-05 2.35678e-05)
(53.1854 -0.0218746 0.000684072)
(42.6371 -0.070033 0.00103274)
(33.8648 -0.120888 0.00136077)
(26.6584 -0.171995 0.001972)
(20.8674 -0.217982 0.00267954)
(16.2944 -0.250037 0.00314231)
(12.719 -0.257792 0.00339462)
(9.91738 -0.233994 0.0034995)
(7.68556 -0.185296 0.00344084)
(5.85738 -0.124705 0.00335218)
(4.31185 -0.0684023 0.0031832)
(2.96909 -0.0285249 0.00289839)
(1.77265 -0.00684162 0.00251207)
(0.671136 0.00189463 0.00209308)
(-0.392634 0.00359885 0.00167878)
(-1.48391 0.00254398 0.00127687)
(-2.676 0.00108865 0.000904878)
(-4.05108 0.000140885 0.000592018)
(-5.70215 -0.000190802 0.000350141)
(-7.73655 -8.53935e-05 0.000113096)
(53.0946 -0.0668306 0.000589154)
(42.5379 -0.213462 0.000932211)
(33.7604 -0.370418 0.00125277)
(26.5569 -0.530789 0.00198593)
(20.7842 -0.67864 0.00280553)
(16.2506 -0.786343 0.00337952)
(12.7323 -0.81818 0.00358949)
(9.98841 -0.740506 0.0036484)
(7.79524 -0.578899 0.00356467)
(5.97541 -0.377423 0.0033823)
(4.40963 -0.193694 0.00313099)
(3.03277 -0.0700017 0.00282874)
(1.80508 -0.0084993 0.00247638)
(0.68331 0.0128654 0.00206894)
(-0.390406 0.0140182 0.0016638)
(-1.48506 0.00857326 0.00126947)
(-2.67743 0.00320783 0.000883371)
(-4.05183 0.00010235 0.00055922)
(-5.70226 -0.000816728 0.000329378)
(-7.73639 -0.000350372 0.000102339)
(52.9019 -0.114729 0.000292416)
(42.3258 -0.369226 0.000729994)
(33.5321 -0.649141 0.00127803)
(26.3275 -0.947432 0.00209745)
(20.5881 -1.23765 0.0029899)
(16.1409 -1.46416 0.00358983)
(12.7572 -1.54917 0.00364296)
(10.155 -1.38616 0.00373079)
(8.05474 -1.05481 0.00359563)
(6.24964 -0.636815 0.00324037)
(4.62687 -0.269535 0.00295779)
(3.16249 -0.0520943 0.00266154)
(1.86203 0.0305696 0.00240611)
(0.698756 0.0466055 0.00201179)
(-0.391733 0.0320109 0.00162792)
(-1.48974 0.0144025 0.0012422)
(-2.68044 0.00284523 0.00084927)
(-4.05249 -0.00221269 0.000518413)
(-5.70128 -0.00281535 0.000274014)
(-7.73478 -0.000993979 4.94656e-05)
(52.6003 -0.165836 0.000125535)
(41.9858 -0.539685 0.000499053)
(33.1492 -0.969352 0.00134976)
(25.9193 -1.4583 0.00251526)
(20.2136 -1.97163 0.00376697)
(15.9126 -2.40331 0.00441533)
(12.7879 -2.60781 0.0038222)
(10.4892 -2.38296 0.00358311)
(8.56344 -1.7551 0.00335173)
(6.7766 -0.926619 0.00280036)
(5.01046 -0.267643 0.00246116)
(3.35053 0.060133 0.00225215)
(1.91889 0.104413 0.00230453)
(0.694456 0.118415 0.00182239)
(-0.410189 0.0551587 0.00159654)
(-1.50225 0.0137361 0.00123619)
(-2.68491 -0.00486761 0.000819211)
(-4.05173 -0.009498 0.000471162)
(-5.69799 -0.00738805 0.000196977)
(-7.73077 -0.00240797 1.88679e-06)
(52.1834 -0.216277 -2.15028e-05)
(41.4994 -0.715127 0.000367477)
(32.5685 -1.32326 0.0015499)
(25.2483 -2.08149 0.0034467)
(19.5308 -2.96772 0.00604854)
(15.4611 -3.86661 0.00848767)
(12.6523 -4.33615 0.00737855)
(12.0036 -5.30295 0.0186401)
(9.81466 -3.75106 0.00990573)
(8.06025 -2.41332 0.0126261)
(6.0109 -1.02795 0.0102479)
(3.92214 -0.319341 0.00907201)
(2.154 -0.00313983 0.00448253)
(0.547608 0.142815 0.00150265)
(-0.471774 0.0540898 0.00167074)
(-1.52565 -0.011358 0.00136066)
(-2.68785 -0.0284217 0.000846209)
(-4.04622 -0.0248342 0.000425889)
(-5.68984 -0.0154668 0.000141295)
(-7.7225 -0.00473784 -3.82343e-05)
(51.6572 -0.255045 -0.000188877)
(40.8613 -0.858384 0.000329425)
(31.7513 -1.64672 0.001988)
(24.2018 -2.75618 0.00495565)
(18.3295 -4.31804 0.0110487)
(14.2158 -6.10373 0.0135007)
(13.6317 -7.85027 -0.015977)
(12.6881 -8.21612 -0.00147368)
(9.06204 -3.51578 -0.00566071)
(1.91251 0.439275 0.00214516)
(0.640494 0.144182 0.00196589)
(-0.589973 -0.078224 0.00183824)
(-1.54912 -0.0934849 0.00178308)
(-2.67939 -0.0740882 0.000946329)
(-4.03023 -0.0472144 0.00042109)
(-5.67372 -0.0255393 9.50053e-05)
(-7.70797 -0.00745687 -7.89943e-05)
(51.0531 -0.268237 -8.57484e-05)
(40.0968 -0.916161 0.00076101)
(30.7008 -1.78925 0.00240291)
(22.7045 -3.07613 0.00532801)
(16.3957 -5.48517 0.012871)
(13.9604 -9.89255 -0.0289144)
(9.0132 -8.07369 -0.000343169)
(-0.474434 -0.206788 -0.000130576)
(-1.54864 -0.243677 0.00189078)
(-2.64223 -0.110888 0.00089062)
(-3.99674 -0.065542 0.000429327)
(-5.6466 -0.0341726 0.000117965)
(-7.6859 -0.00967475 -7.57756e-05)
(50.4351 -0.250035 0.000125849)
(39.2727 -0.874822 0.00140885)
(29.4733 -1.77772 0.00425872)
(20.954 -3.22145 0.0102777)
(16.2782 -8.56266 -0.0155073)
(11.4445 -10.0549 0.00121817)
(-6.59922e-05 0.000148355 -0.01838)
(0.000119666 -0.000113305 -0.0183489)
(-0.42177 -0.470818 0.000199588)
(-1.15555 -0.16616 0.000611496)
(-2.56471 -0.166521 0.00139871)
(-3.93564 -0.0881493 0.000621528)
(-5.60641 -0.0419646 0.000188004)
(-7.657 -0.0112884 -5.12252e-05)
(49.9083 -0.182353 0.000249679)
(38.5292 -0.649647 0.00201822)
(28.2568 -1.36322 0.00670379)
(18.6929 -2.59709 0.0174614)
(12.5199 -5.1281 -0.0189029)
(4.09523 -8.06814 0.00705585)
(0.000234413 0.000213193 -0.0184451)
(0.000336045 0.000169916 -0.0224125)
(-0.000170329 0.000183281 -0.0223659)
(0.00255004 -0.000406291 -0.0184021)
(-0.000315595 0.000386635 -0.0183412)
(-0.892706 -0.565603 -7.72747e-05)
(-2.38946 -0.167844 0.00227619)
(-3.85231 -0.0814685 0.000914521)
(-5.56058 -0.0366474 0.000258495)
(-7.62743 -0.00958641 -4.18515e-05)
(49.6022 -0.0631992 0.000415891)
(38.0837 -0.222313 0.00243268)
(27.4926 -0.452745 0.00810628)
(17.252 -0.875567 0.0189631)
(9.63276 -2.59605 -0.0265771)
(0.000188439 -0.000113184 -0.0184278)
(0.000244946 0.00022765 -0.0224615)
(2.95044e-05 -6.98e-05 -0.022497)
(0.000153024 -6.9968e-05 -0.0224448)
(-0.000127517 0.000265096 -0.0223222)
(0.00216227 -0.000164413 -0.0183539)
(-0.423587 -0.358024 -0.00107015)
(-2.26764 -0.0537456 0.00243999)
(-3.79423 -0.0247854 0.00108215)
(-5.53031 -0.0119016 0.000313773)
(-7.60863 -0.00319482 -1.48082e-05)
(49.6022 0.0632528 0.00041542)
(38.0837 0.222387 0.00243294)
(27.4926 0.452786 0.0080766)
(17.252 0.87551 0.0189531)
(8.67942 0.902455 -0.01695)
(-0.000108743 5.51914e-05 -0.0184593)
(0.000240488 -0.000249027 -0.0224561)
(2.45716e-05 5.31904e-05 -0.0224973)
(0.000151384 4.85245e-05 -0.022442)
(-0.000110249 -0.000273663 -0.0223113)
(0.00249688 0.000133384 -0.0183636)
(-0.37176 0.124131 -0.00113711)
(-2.26763 0.0536983 0.00244357)
(-3.79422 0.0247675 0.00110058)
(-5.53031 0.0118955 0.000326599)
(-7.60863 0.00319575 -1.46602e-05)
(49.9084 0.182382 0.000248309)
(38.5292 0.649695 0.00201731)
(28.2567 1.36325 0.00667829)
(18.6929 2.5971 0.0175185)
(10.1545 4.06908 -0.021983)
(-0.00041182 0.0025118 -0.018497)
(0.000349577 -0.000182847 -0.022409)
(-0.000156371 -0.000171974 -0.0223603)
(0.00269139 0.00263037 -0.01845)
(2.61226e-05 -0.00017803 -0.0183394)
(-0.545859 0.506628 -0.000921771)
(-2.38936 0.167817 0.00228782)
(-3.8523 0.0814546 0.000947635)
(-5.56056 0.0366407 0.000286824)
(-7.62742 0.00958648 -3.57492e-05)
(50.4352 0.250032 0.000125674)
(39.2727 0.874826 0.00141031)
(29.4732 1.77773 0.00426498)
(20.9539 3.22148 0.0103016)
(13.7296 5.45117 -0.0177357)
(5.34171 10.4822 0.0015545)
(0.00037637 -0.000332453 -0.0184353)
(-9.47906e-05 0.00216993 -0.018444)
(0.000250267 0.00245521 -0.0184179)
(-0.000105871 6.65584e-06 -0.0183501)
(-1.0489 0.426006 0.000899426)
(-2.56472 0.166505 0.00141245)
(-3.93561 0.0881364 0.000638573)
(-5.60639 0.0419562 0.000195869)
(-7.657 0.0112878 -3.96109e-05)
(51.0532 0.268211 -8.44931e-05)
(40.0968 0.916133 0.00076422)
(30.7008 1.78925 0.00240698)
(22.7044 3.0762 0.00533248)
(16.396 5.48517 0.0128659)
(10.6141 7.79501 0.00543864)
(-0.3835 0.452654 4.10708e-05)
(-1.54852 0.243733 0.00188024)
(-2.64214 0.110919 0.000891158)
(-3.9967 0.0655627 0.000426413)
(-5.64658 0.0341867 0.000119522)
(-7.68589 0.0096744 -7.57355e-05)
(51.6573 0.255007 -0.00018682)
(40.8613 0.858329 0.000333367)
(31.7513 1.64668 0.00199068)
(24.2019 2.75619 0.00495185)
(18.3295 4.31814 0.0110698)
(14.215 6.1035 0.0135199)
(12.6152 9.7568 0.00186435)
(10.0282 5.88973 -0.000724153)
(0.44247 -0.171797 0.000748563)
(-0.590148 0.0787347 0.00181722)
(-1.54912 0.0936361 0.00177979)
(-2.67937 0.0741535 0.000943153)
(-4.03022 0.0472433 0.000424964)
(-5.67371 0.0255489 9.31843e-05)
(-7.70797 0.00745701 -7.89618e-05)
(52.1834 0.216242 -1.95865e-05)
(41.4994 0.71507 0.000370526)
(32.5685 1.32321 0.00155139)
(25.2483 2.08146 0.00344425)
(19.5308 2.96776 0.0060755)
(15.461 3.86669 0.00854396)
(12.6523 4.33651 0.00738273)
(10.8398 4.35022 0.00356253)
(11.0952 5.3124 -0.00336862)
(8.94782 0.984065 0.00112482)
(6.45858 -0.00198173 0.00281985)
(4.05342 -0.631244 0.00368273)
(2.09302 -0.543156 0.00177328)
(0.547736 -0.142895 0.00148786)
(-0.471759 -0.054018 0.00166806)
(-1.5257 0.0114349 0.00136186)
(-2.68788 0.028468 0.000846952)
(-4.04624 0.0248566 0.000429326)
(-5.68985 0.0154743 0.000139993)
(-7.7225 0.00473786 -3.81816e-05)
(52.6003 0.165815 0.000126853)
(41.9858 0.539649 0.000500738)
(33.1493 0.969325 0.00135031)
(25.9194 1.4583 0.00251513)
(20.2137 1.97165 0.00377018)
(15.9126 2.4034 0.00442808)
(12.7879 2.60795 0.00383163)
(10.4892 2.38304 0.00357374)
(8.56326 1.75528 0.00329326)
(6.77633 0.926776 0.0027158)
(5.01034 0.267771 0.00239544)
(3.35065 -0.0600095 0.00223468)
(1.9191 -0.104556 0.00229983)
(0.694563 -0.118432 0.00181829)
(-0.410151 -0.0551922 0.00160096)
(-1.50227 -0.0137319 0.00124108)
(-2.68494 0.0048822 0.000823148)
(-4.05177 0.00950579 0.000471852)
(-5.698 0.00739283 0.000199782)
(-7.73078 0.00240784 1.82118e-06)
(52.9018 0.114721 0.000293295)
(42.3259 0.369213 0.000730876)
(33.5321 0.649134 0.00127831)
(26.3275 0.94744 0.00209845)
(20.5882 1.23768 0.00299477)
(16.1409 1.46421 0.00360027)
(12.7572 1.54922 0.00365259)
(10.155 1.38616 0.00373181)
(8.0546 1.05477 0.00358369)
(6.24947 0.636873 0.00321422)
(4.62679 0.269643 0.00293247)
(3.16255 0.0522116 0.00264491)
(1.86216 -0.0305627 0.00240165)
(0.698844 -0.0466249 0.00200791)
(-0.391693 -0.0320417 0.00163156)
(-1.48975 -0.0144269 0.00123944)
(-2.68046 -0.00285508 0.000845974)
(-4.05252 0.00221334 0.000521329)
(-5.7013 0.00281409 0.000269142)
(-7.73478 0.000993838 4.0781e-05)
(53.0945 0.0668297 0.000589871)
(42.5379 0.213461 0.00093297)
(33.7604 0.37042 0.00125324)
(26.557 0.530796 0.0019872)
(20.7843 0.678653 0.00280949)
(16.2507 0.786362 0.00338669)
(12.7323 0.818196 0.00359658)
(9.98835 0.740503 0.00365058)
(7.79512 0.578893 0.00355996)
(5.97529 0.377461 0.00336986)
(4.40958 0.193756 0.00311565)
(3.03279 0.0700614 0.00281963)
(1.80515 0.0085162 0.00247319)
(0.683373 -0.0128734 0.00206978)
(-0.390371 -0.0140391 0.00166516)
(-1.48506 -0.00858418 0.00126479)
(-2.67745 -0.00321206 0.000881861)
(-4.05185 -0.000105165 0.000558837)
(-5.70227 0.000816102 0.000324456)
(-7.73639 0.000350126 9.36606e-05)
(53.1853 0.0218751 0.000684952)
(42.6371 0.0700338 0.00103383)
(33.8649 0.12089 0.00136187)
(26.6585 0.171998 0.00197361)
(20.8674 0.217985 0.00268229)
(16.2944 0.25004 0.00314709)
(12.719 0.257794 0.00339934)
(9.91732 0.233992 0.00350076)
(7.68545 0.185295 0.00343589)
(5.85728 0.124717 0.00334202)
(4.3118 0.0684224 0.00317215)
(2.9691 0.0285433 0.00289044)
(1.77269 0.00684744 0.00250829)
(0.671185 -0.00189655 0.00209263)
(-0.392604 -0.00360599 0.00168026)
(-1.4839 -0.00255086 0.00127933)
(-2.67601 -0.00109435 0.000905532)
(-4.0511 -0.000142195 0.000592983)
(-5.70216 0.000190517 0.000350627)
(-7.73655 8.52635e-05 0.000113046)
(53.1863 -0.021926 0.000637717)
(42.6379 -0.069975 0.00203172)
(33.8657 -0.120792 0.00362559)
(26.6592 -0.171857 0.00486588)
(20.868 -0.217733 0.00579032)
(16.2947 -0.24984 0.00639113)
(12.7191 -0.257664 0.00657058)
(9.91735 -0.233932 0.00655221)
(7.68545 -0.185308 0.00636894)
(5.8572 -0.124739 0.00598891)
(4.31159 -0.068449 0.00552794)
(2.96874 -0.0285606 0.00494658)
(1.77224 -0.00687004 0.0043022)
(0.670712 0.00187485 0.00361153)
(-0.39305 0.00359312 0.002934)
(-1.4843 0.00255016 0.00229707)
(-2.67636 0.00108934 0.00171176)
(-4.05141 0.00014283 0.00117449)
(-5.70244 -0.000189915 0.000652893)
(-7.7368 -9.49185e-05 0.00019537)
(53.0955 -0.0667952 0.000580718)
(42.5388 -0.213437 0.00204818)
(33.7613 -0.37027 0.0037289)
(26.5577 -0.530423 0.00517027)
(20.7848 -0.67814 0.00616802)
(16.2509 -0.785897 0.00671299)
(12.7323 -0.81797 0.00687333)
(9.98825 -0.740513 0.00680166)
(7.79507 -0.579025 0.00641571)
(5.97524 -0.377568 0.0059246)
(4.40943 -0.193808 0.00539785)
(3.03249 -0.0700825 0.00482636)
(1.80474 -0.00855946 0.00420361)
(0.68293 0.0128125 0.00354785)
(-0.390789 0.0139951 0.00290662)
(-1.48545 0.00857374 0.00228156)
(-2.6778 0.00320833 0.0016993)
(-4.05216 8.90358e-05 0.00115536)
(-5.70255 -0.000831442 0.000635324)
(-7.73665 -0.000352318 0.000180367)
(52.9029 -0.114724 0.000795099)
(42.3269 -0.36901 0.00215559)
(33.5331 -0.648644 0.00392911)
(26.3283 -0.946671 0.00577216)
(20.5885 -1.23681 0.00710277)
(16.1408 -1.46372 0.00750279)
(12.7569 -1.54934 0.0072415)
(10.1547 -1.38676 0.00680286)
(8.05462 -1.05553 0.0061255)
(6.24965 -0.637213 0.00556545)
(4.62687 -0.269625 0.00507915)
(3.1624 -0.0520663 0.00458981)
(1.86182 0.0305618 0.00403461)
(0.698469 0.0465237 0.00340739)
(-0.392037 0.0319663 0.00284692)
(-1.49008 0.0144109 0.00227331)
(-2.68079 0.00286403 0.00168621)
(-4.05283 -0.00220077 0.0011179)
(-5.70159 -0.00281773 0.00061286)
(-7.73504 -0.00100439 0.000197325)
(52.6015 -0.165757 0.000897621)
(41.9869 -0.539374 0.00268632)
(33.1503 -0.968736 0.00476468)
(25.9199 -1.4575 0.00721302)
(20.2134 -1.9711 0.00906602)
(15.9118 -2.40396 0.00920846)
(12.7867 -2.60892 0.00753157)
(10.4888 -2.38404 0.00611336)
(8.56364 -1.75615 0.00504507)
(6.77709 -0.927006 0.00490608)
(5.01081 -0.267599 0.00486859)
(3.35059 0.0602872 0.0045254)
(1.91875 0.104437 0.00391354)
(0.694279 0.11831 0.00316518)
(-0.410291 0.0550712 0.00274539)
(-1.50243 0.0137176 0.00231028)
(-2.68518 -0.00485254 0.0017309)
(-4.05205 -0.00948348 0.00113149)
(-5.69829 -0.00738537 0.000630672)
(-7.73103 -0.00241052 0.000193552)
(52.1846 -0.216134 0.00106795)
(41.5006 -0.714734 0.00347797)
(32.5693 -1.32272 0.00649262)
(25.2481 -2.08134 0.00977822)
(19.5294 -2.96914 0.0120533)
(15.4586 -3.86962 0.0106355)
(12.65 -4.33879 0.0084496)
(12.0034 -5.30611 0.0195058)
(9.816 -3.75376 0.0102544)
(8.06221 -2.41498 0.0115518)
(6.01222 -1.02822 0.0101031)
(3.92269 -0.319237 0.00958865)
(2.15409 -0.00286088 0.00564786)
(0.547597 0.142761 0.00283597)
(-0.471629 0.0538401 0.00253438)
(-1.52555 -0.0115139 0.00238917)
(-2.68794 -0.0284652 0.00186896)
(-4.04645 -0.0248296 0.00124416)
(-5.69011 -0.0154525 0.000667548)
(-7.72274 -0.00473084 0.000199243)
(51.6585 -0.254889 0.00161815)
(40.8624 -0.857981 0.0046834)
(31.7516 -1.64634 0.00882727)
(24.2005 -2.75689 0.0127948)
(18.3262 -4.31962 0.0135282)
(14.2118 -6.10577 0.00988819)
(13.6301 -7.85456 -0.0191607)
(12.685 -8.22041 0.00302143)
(9.06255 -3.51448 0.00337693)
(1.91258 0.438426 0.00326554)
(0.640461 0.143776 0.00293877)
(-0.589672 -0.0785521 0.00216746)
(-1.54876 -0.0937165 0.00230745)
(-2.67926 -0.0742177 0.00206129)
(-4.03032 -0.0472143 0.00142762)
(-5.67393 -0.0255198 0.000774967)
(-7.70819 -0.00744468 0.000263644)
(51.0544 -0.267969 0.00237461)
(40.0976 -0.915591 0.00633964)
(30.7003 -1.78843 0.0113919)
(22.7017 -3.07546 0.0143171)
(16.391 -5.48682 0.0132692)
(13.9567 -9.89561 -0.032083)
(9.01224 -8.07518 0.00476984)
(-0.47411 -0.207175 0.00102024)
(-1.54804 -0.243937 0.00201367)
(-2.64186 -0.110874 0.0020535)
(-3.99666 -0.0654689 0.00166417)
(-5.64672 -0.034119 0.000949481)
(-7.68609 -0.00964071 0.000366976)
(50.4364 -0.249886 0.00346745)
(39.2728 -0.874801 0.00886675)
(29.4714 -1.77811 0.0152753)
(20.9488 -3.22351 0.0157789)
(16.273 -8.56618 -0.016953)
(11.4411 -10.0557 0.00572541)
(-2.9372e-05 0.00014698 -0.0338619)
(0.000142389 -0.000129622 -0.0338417)
(-0.421491 -0.470931 0.00114251)
(-1.15435 -0.166485 0.000822988)
(-2.56397 -0.166806 0.0020384)
(-3.93531 -0.088227 0.00207066)
(-5.60639 -0.0419715 0.00126694)
(-7.65715 -0.0112658 0.000530703)
(49.9094 -0.182299 0.00464175)
(38.5285 -0.649804 0.0114756)
(28.2529 -1.36378 0.0189254)
(18.6847 -2.59881 0.0167623)
(12.5121 -5.1326 -0.0221682)
(4.09104 -8.06781 0.00616835)
(0.000236834 0.000183296 -0.0340036)
(0.000364859 5.05258e-05 -0.0384475)
(-0.000115493 7.04405e-05 -0.0383544)
(0.00452123 -0.000467947 -0.0338887)
(-0.000295076 0.00040984 -0.0336948)
(-0.891955 -0.566108 0.000461045)
(-2.38828 -0.168052 0.0020669)
(-3.85167 -0.0815355 0.00252708)
(-5.56039 -0.0366713 0.00162355)
(-7.62752 -0.00957444 0.000724342)
(49.6031 -0.0631954 0.00532096)
(38.0824 -0.222338 0.0129665)
(27.4874 -0.452688 0.0209032)
(17.2417 -0.87612 0.0164866)
(9.62279 -2.59938 -0.0294608)
(0.000190724 -0.000121539 -0.0339691)
(0.000163525 0.000209959 -0.0385444)
(7.74098e-06 -0.000140886 -0.0386954)
(0.000271321 -0.000138538 -0.0385925)
(2.105e-05 0.00025608 -0.0382686)
(0.00392684 -9.99448e-05 -0.0337693)
(-0.422512 -0.358267 0.000273544)
(-2.26619 -0.0538162 0.0020217)
(-3.79339 -0.0247786 0.00278599)
(-5.53002 -0.0119049 0.0018316)
(-7.60869 -0.00319197 0.000835323)
(49.6032 0.0632482 0.00532178)
(38.0824 0.222412 0.012966)
(27.4874 0.452753 0.0209688)
(17.2418 0.876141 0.0165847)
(8.6684 0.902607 -0.0206131)
(-0.000130245 6.54509e-05 -0.0339798)
(0.000154917 -0.00023153 -0.0385386)
(8.23734e-07 0.000127068 -0.0386969)
(0.000268788 0.00011861 -0.0385936)
(3.63681e-05 -0.000266371 -0.0382592)
(0.00448707 9.35538e-05 -0.0337965)
(-0.3707 0.124217 0.000271943)
(-2.26618 0.0537723 0.00201842)
(-3.79338 0.0247567 0.00276087)
(-5.53001 0.011899 0.00181212)
(-7.60869 0.00319732 0.000835329)
(49.9095 0.182329 0.00463804)
(38.5285 0.649851 0.011473)
(28.2529 1.36377 0.0189935)
(18.6847 2.59874 0.0168501)
(10.1458 4.07291 -0.0274232)
(-0.000461349 0.00447527 -0.0340784)
(0.000376919 -6.52032e-05 -0.0384464)
(-0.000102403 -6.08997e-05 -0.0383571)
(0.00463223 0.00453145 -0.0340091)
(5.90945e-05 -0.000202043 -0.0337513)
(-0.544903 0.50716 0.000277054)
(-2.38819 0.168022 0.00206298)
(-3.85166 0.0815335 0.0024976)
(-5.56038 0.0366566 0.00157666)
(-7.62752 0.00956274 0.000703212)
(50.4365 0.249885 0.00346776)
(39.2728 0.874807 0.00886769)
(29.4713 1.77815 0.0152791)
(20.9487 3.22355 0.0158051)
(13.7248 5.45573 -0.0186436)
(5.33261 10.486 0.0064569)
(0.000421744 -0.000322972 -0.0339319)
(-1.5279e-05 0.00393684 -0.0339564)
(0.000246381 0.00443128 -0.0339188)
(-8.6103e-05 2.28202e-05 -0.0337994)
(-1.0478 0.426952 0.000695288)
(-2.56398 0.166787 0.0020336)
(-3.93528 0.0881972 0.00206248)
(-5.60638 0.0419696 0.00122986)